============================== echo of input deck ==============================
echo

start hf_scf

geometry units ang
C          2.05639       -0.16543        0.39727
C          0.68890        2.02854       -0.64816
C          2.74071        1.02327        0.12533
C          2.05734        2.11782       -0.40016
C         -3.59396        1.03209        0.04589
C          0.67738       -0.27507        0.15097
C          0.00274        0.84234       -0.35887
O          0.63293       -2.54526        0.93360
O         -1.76452        1.43252        1.56571
O         -1.24894       -1.68411        0.12975
C          0.05278       -1.58881        0.44958
C         -2.15199        1.12841        0.44513
O         -1.36167        0.82832       -0.65825
H         -1.47652       -2.60111        0.39232
H          2.60948       -1.01173        0.80284
H          0.15708        2.88266       -1.05823
H          3.80777        1.09126        0.32364
H          2.59044        3.04081       -0.61405
H         -3.81640        0.02049       -0.30287
H         -4.22480        1.24591        0.91440
H         -3.81296        1.76576       -0.73332
end

basis cartesian print segment
 H library 6-31G
 C library 6-31G
 O library 6-31G
end

scf
  maxiter 20
end

driver
  inhess 1
  maxiter 40
end

task scf optimize
================================================================================

         Total SCF energy =   -644.661205185851
@ Step       Energy      Delta E   Gmax     Grms     Xrms     Xmax   Walltime
@ ---- ---------------- -------- -------- -------- -------- -------- --------
@    0    -644.66120519  0.0D+00  0.03673  0.00776  0.00000  0.00000     22.7
         Total SCF energy =   -644.673100267057
         Total SCF energy =   -644.673625460900
@    1    -644.67362546 -1.2D-02  0.02098  0.00283  0.09465  0.21978     52.0
         Total SCF energy =   -644.674909375664
         Total SCF energy =   -644.674937262624
@    2    -644.67493726 -1.3D-03  0.00798  0.00126  0.07127  0.15281     83.9
         Total SCF energy =   -644.675286391111
         Total SCF energy =   -644.675286391111
@    3    -644.67528639 -3.5D-04  0.00296  0.00061  0.03396  0.11035    103.9
         Total SCF energy =   -644.675439426052
         Total SCF energy =   -644.675439426052
@    4    -644.67543943 -1.5D-04  0.00337  0.00063  0.03219  0.09307    123.0
         Total SCF energy =   -644.675551771111
         Total SCF energy =   -644.675553250604
@    5    -644.67555325 -1.1D-04  0.00125  0.00031  0.01540  0.04937    154.1
         Total SCF energy =   -644.675614618966
         Total SCF energy =   -644.675625331349
@    6    -644.67562533 -7.2D-05  0.00082  0.00024  0.01839  0.04588    183.0
         Total SCF energy =   -644.675664607533
         Total SCF energy =   -644.675674275044
@    7    -644.67567428 -4.9D-05  0.00091  0.00018  0.01948  0.05425    212.0
         Total SCF energy =   -644.675684155418
         Total SCF energy =   -644.675684155418
@    8    -644.67568416 -9.9D-06  0.00019  0.00006  0.00636  0.02047    231.5
         Total SCF energy =   -644.675688180745
         Total SCF energy =   -644.675688900175
@    9    -644.67568890 -4.7D-06  0.00032  0.00009  0.00393  0.01155    260.2
         Total SCF energy =   -644.675691626398
         Total SCF energy =   -644.675692767146
@   10    -644.67569277 -3.9D-06  0.00038  0.00006  0.00469  0.01315    288.3
         Total SCF energy =   -644.675694496491
         Total SCF energy =   -644.675694516529
@   11    -644.67569452 -1.7D-06  0.00023  0.00004  0.00394  0.01295    317.4
         Total SCF energy =   -644.675695536750
         Total SCF energy =   -644.675694874297
@   12    -644.67569487 -3.6D-07  0.00065  0.00011  0.00662  0.01956    345.8
         Total SCF energy =   -644.675696458044
         Total SCF energy =   -644.675696458044
@   13    -644.67569646 -1.6D-06  0.00005  0.00002  0.00323  0.00866    365.0
         Total SCF energy =   -644.675696863525
         Total SCF energy =   -644.675696942992
@   14    -644.67569694 -4.8D-07  0.00005  0.00001  0.00117  0.00325    393.3
         Total SCF energy =   -644.675699014433
         Total SCF energy =   -644.675699794077
@   15    -644.67569979 -2.9D-06  0.00055  0.00010  0.00594  0.02395    421.5
         Total SCF energy =   -644.675702031782
         Total SCF energy =   -644.675704460967
@   16    -644.67570446 -4.7D-06  0.00057  0.00008  0.01290  0.04451    450.1
         Total SCF energy =   -644.675706121317
         Total SCF energy =   -644.675706108208
@   17    -644.67570611 -1.6D-06  0.00047  0.00006  0.00300  0.00969    478.5
         Total SCF energy =   -644.675706505437
         Total SCF energy =   -644.675706505437
@   18    -644.67570651 -4.0D-07  0.00004  0.00001  0.00068  0.00301    497.5
         Total SCF energy =   -644.675706608199

 Vector   46  Occ=2.000000D+00  E=-3.656889D-01

 Vector   47  Occ=2.000000D+00  E=-3.536107D-01

 Vector   48  Occ=0.000000D+00  E= 7.435001D-02

 Vector   49  Occ=0.000000D+00  E= 1.277621D-01

 Vector   50  Occ=0.000000D+00  E= 1.698411D-01

 Vector   51  Occ=0.000000D+00  E= 2.116777D-01

 Vector   52  Occ=0.000000D+00  E= 2.200976D-01

 Vector   53  Occ=0.000000D+00  E= 2.333321D-01

 Vector   54  Occ=0.000000D+00  E= 2.568646D-01

 Vector   55  Occ=0.000000D+00  E= 2.852984D-01

 Vector   56  Occ=0.000000D+00  E= 2.954869D-01

 Vector   57  Occ=0.000000D+00  E= 3.139865D-01

 Vector   58  Occ=0.000000D+00  E= 3.201957D-01

 Vector   59  Occ=0.000000D+00  E= 3.308523D-01

 Vector   60  Occ=0.000000D+00  E= 3.512456D-01

 Vector   61  Occ=0.000000D+00  E= 3.717800D-01

 Vector   62  Occ=0.000000D+00  E= 4.061987D-01

 Vector   63  Occ=0.000000D+00  E= 4.211801D-01

 Vector   64  Occ=0.000000D+00  E= 4.292352D-01

 Vector   65  Occ=0.000000D+00  E= 4.576107D-01

 Vector   66  Occ=0.000000D+00  E= 4.849760D-01

 Vector   67  Occ=0.000000D+00  E= 4.986148D-01

 Vector   68  Occ=0.000000D+00  E= 4.988651D-01

 Vector   69  Occ=0.000000D+00  E= 5.388707D-01

         Total SCF energy =   -644.675706609025

 Vector   14  Occ=2.000000D+00  E=-1.498264D+00

 Vector   15  Occ=2.000000D+00  E=-1.487584D+00

 Vector   16  Occ=2.000000D+00  E=-1.391650D+00

 Vector   17  Occ=2.000000D+00  E=-1.382659D+00

 Vector   18  Occ=2.000000D+00  E=-1.191590D+00

 Vector   19  Occ=2.000000D+00  E=-1.073272D+00

 Vector   20  Occ=2.000000D+00  E=-1.064641D+00

 Vector   21  Occ=2.000000D+00  E=-1.022210D+00

 Vector   22  Occ=2.000000D+00  E=-9.258300D-01

 Vector   23  Occ=2.000000D+00  E=-8.774366D-01

 Vector   24  Occ=2.000000D+00  E=-8.373265D-01

 Vector   25  Occ=2.000000D+00  E=-8.044815D-01

 Vector   26  Occ=2.000000D+00  E=-7.343343D-01

 Vector   27  Occ=2.000000D+00  E=-7.187074D-01

 Vector   28  Occ=2.000000D+00  E=-6.995099D-01

 Vector   29  Occ=2.000000D+00  E=-6.938040D-01

 Vector   30  Occ=2.000000D+00  E=-6.749434D-01

 Vector   31  Occ=2.000000D+00  E=-6.682766D-01

 Vector   32  Occ=2.000000D+00  E=-6.478787D-01

 Vector   33  Occ=2.000000D+00  E=-6.360823D-01

 Vector   34  Occ=2.000000D+00  E=-6.258402D-01

 Vector   35  Occ=2.000000D+00  E=-5.913512D-01

 Vector   36  Occ=2.000000D+00  E=-5.854603D-01

 Vector   37  Occ=2.000000D+00  E=-5.767601D-01

 Vector   38  Occ=2.000000D+00  E=-5.619608D-01

 Vector   39  Occ=2.000000D+00  E=-5.386599D-01

 Vector   40  Occ=2.000000D+00  E=-5.223918D-01

 Vector   41  Occ=2.000000D+00  E=-5.195633D-01

 Vector   42  Occ=2.000000D+00  E=-4.873058D-01

 Vector   43  Occ=2.000000D+00  E=-4.716420D-01

 Vector   44  Occ=2.000000D+00  E=-4.640491D-01

 Vector   45  Occ=2.000000D+00  E=-4.544308D-01

 Vector   46  Occ=2.000000D+00  E=-3.656886D-01

 Vector   47  Occ=2.000000D+00  E=-3.536110D-01

 Vector   48  Occ=0.000000D+00  E= 7.435021D-02

 Vector   49  Occ=0.000000D+00  E= 1.277624D-01

 Vector   50  Occ=0.000000D+00  E= 1.698406D-01

 Vector   51  Occ=0.000000D+00  E= 2.116802D-01

 Vector   52  Occ=0.000000D+00  E= 2.200978D-01

 Vector   53  Occ=0.000000D+00  E= 2.333324D-01

 Vector   54  Occ=0.000000D+00  E= 2.568618D-01

 Vector   55  Occ=0.000000D+00  E= 2.852986D-01

 Vector   56  Occ=0.000000D+00  E= 2.954864D-01

 Vector   57  Occ=0.000000D+00  E= 3.139867D-01

 Vector   58  Occ=0.000000D+00  E= 3.201956D-01

 Vector   59  Occ=0.000000D+00  E= 3.308508D-01

 Vector   60  Occ=0.000000D+00  E= 3.512454D-01

 Vector   61  Occ=0.000000D+00  E= 3.717822D-01

 Vector   62  Occ=0.000000D+00  E= 4.061966D-01

 Vector   63  Occ=0.000000D+00  E= 4.211805D-01

 Vector   64  Occ=0.000000D+00  E= 4.292366D-01

 Vector   65  Occ=0.000000D+00  E= 4.576114D-01

 Vector   66  Occ=0.000000D+00  E= 4.849785D-01

 Vector   67  Occ=0.000000D+00  E= 4.986152D-01

 Vector   68  Occ=0.000000D+00  E= 4.988640D-01

 Vector   69  Occ=0.000000D+00  E= 5.388699D-01

       Multipole analysis of the density wrt the origin
       ------------------------------------------------

     L   x y z        total         open         nuclear
     -   - - -        -----         ----         -------
     0   0 0 0     -0.000000      0.000000     94.000000

     1   1 0 0      0.779050      0.000000      1.912357
     1   0 1 0      0.244055      0.000000      1.256628
     1   0 0 1     -0.907347      0.000000      6.635986

     2   2 0 0    -53.228927      0.000000    735.550057
     2   1 1 0     -7.289968      0.000000    -50.306526
     2   1 0 1      0.056646      0.000000    -31.169492
     2   0 2 0    -44.773548      0.000000   1259.551209
     2   0 1 1     -3.501828      0.000000     13.903395

@   19    -644.67570661 -1.0D-07  0.00004  0.00001  0.00053  0.00157    524.6
@   19    -644.67570661 -1.0D-07  0.00004  0.00001  0.00053  0.00157    524.6

 Output coordinates in angstroms (scale by  1.889725989 to convert to a.u.)

  No.       Tag          Charge          X              Y              Z
 ---- ---------------- ---------- -------------- -------------- --------------
    1 C                    6.0000    -0.32806227    -2.30196472     0.18320507
    2 C                    6.0000     1.97044119    -0.86424200    -0.34452191
    3 C                    6.0000     0.88979704    -2.95248233     0.14352628
    4 C                    6.0000     2.04322215    -2.22874311    -0.12449366
    5 C                    6.0000     0.43343424     3.44768593    -0.29921738
    6 C                    6.0000    -0.42439384    -0.92753387    -0.04142752
    7 C                    6.0000     0.74805393    -0.22001198    -0.29977199
    8 O                    8.0000    -2.77948897    -1.00918458     0.26228617
    9 O                    8.0000     0.47042959     1.86759934     1.52351446
   10 O                    8.0000    -1.88528809     0.96534648    -0.23930387
   11 C                    6.0000    -1.78396294    -0.35642425     0.01524346
   12 C                    6.0000     0.53722162     2.11130809     0.34518799
   13 O                    8.0000     0.75829205     1.13806605    -0.59280008
   14 H                    1.0000    -2.78484186     1.27821593    -0.17232828
   15 H                    1.0000    -1.22961445    -2.84252111     0.38606987
   16 H                    1.0000     2.84609253    -0.28541698    -0.55476874
   17 H                    1.0000     0.93940488    -4.00856837     0.31804457
   18 H                    1.0000     2.99482903    -2.72176798    -0.16023558
   19 H                    1.0000    -0.40765195     3.44781604    -0.97886532
   20 H                    1.0000     0.30248488     4.20661427     0.45486515
   21 H                    1.0000     1.32520932     3.65043803    -0.87712446

 Total times  cpu:      499.6s     wall:      524.6s
