============================== echo of input deck ==============================
echo

start hf_scf

geometry units ang
C          2.05639       -0.16543        0.39727
C          0.68890        2.02854       -0.64816
C          2.74071        1.02327        0.12533
C          2.05734        2.11782       -0.40016
C         -3.59396        1.03209        0.04589
C          0.67738       -0.27507        0.15097
C          0.00274        0.84234       -0.35887
O          0.63293       -2.54526        0.93360
O         -1.76452        1.43252        1.56571
O         -1.24894       -1.68411        0.12975
C          0.05278       -1.58881        0.44958
C         -2.15199        1.12841        0.44513
O         -1.36167        0.82832       -0.65825
H         -1.47652       -2.60111        0.39232
H          2.60948       -1.01173        0.80284
H          0.15708        2.88266       -1.05823
H          3.80777        1.09126        0.32364
H          2.59044        3.04081       -0.61405
H         -3.81640        0.02049       -0.30287
H         -4.22480        1.24591        0.91440
H         -3.81296        1.76576       -0.73332
end

basis cartesian print segment
 H library 6-31G
 C library 6-31G
 O library 6-31G
end

scf
  maxiter 20
end

driver
  maxiter 40
end

task scf optimize
================================================================================

         Total SCF energy =   -644.661205185851
@ Step       Energy      Delta E   Gmax     Grms     Xrms     Xmax   Walltime
@ ---- ---------------- -------- -------- -------- -------- -------- --------
@    0    -644.66120519  0.0D+00  0.03673  0.00776  0.00000  0.00000     22.5
         Total SCF energy =   -644.674287473669
         Total SCF energy =   -644.675191347242
@    1    -644.67519135 -1.4D-02  0.00898  0.00143  0.18529  0.40240     52.4
         Total SCF energy =   -644.675682105007
         Total SCF energy =   -644.675682105007
@    2    -644.67568211 -4.9D-04  0.00105  0.00027  0.04475  0.14200     72.3
         Total SCF energy =   -644.675704616116
         Total SCF energy =   -644.675705037694
@    3    -644.67570504 -2.3D-05  0.00072  0.00011  0.01615  0.08502    100.2
         Total SCF energy =   -644.675706703310
         Total SCF energy =   -644.675706703310
@    4    -644.67570670 -1.7D-06  0.00017  0.00002  0.00258  0.00860    119.0
         Total SCF energy =   -644.675706793447

 Vector   46  Occ=2.000000D+00  E=-3.656850D-01

 Vector   47  Occ=2.000000D+00  E=-3.536067D-01

 Vector   48  Occ=0.000000D+00  E= 7.435520D-02

 Vector   49  Occ=0.000000D+00  E= 1.277618D-01

 Vector   50  Occ=0.000000D+00  E= 1.698319D-01

 Vector   51  Occ=0.000000D+00  E= 2.116847D-01

 Vector   52  Occ=0.000000D+00  E= 2.200993D-01

 Vector   53  Occ=0.000000D+00  E= 2.333345D-01

 Vector   54  Occ=0.000000D+00  E= 2.568737D-01

 Vector   55  Occ=0.000000D+00  E= 2.852974D-01

 Vector   56  Occ=0.000000D+00  E= 2.954898D-01

 Vector   57  Occ=0.000000D+00  E= 3.139895D-01

 Vector   58  Occ=0.000000D+00  E= 3.201911D-01

 Vector   59  Occ=0.000000D+00  E= 3.308644D-01

 Vector   60  Occ=0.000000D+00  E= 3.512333D-01

 Vector   61  Occ=0.000000D+00  E= 3.717851D-01

 Vector   62  Occ=0.000000D+00  E= 4.061963D-01

 Vector   63  Occ=0.000000D+00  E= 4.211803D-01

 Vector   64  Occ=0.000000D+00  E= 4.292543D-01

 Vector   65  Occ=0.000000D+00  E= 4.576087D-01

 Vector   66  Occ=0.000000D+00  E= 4.849859D-01

 Vector   67  Occ=0.000000D+00  E= 4.986201D-01

 Vector   68  Occ=0.000000D+00  E= 4.988680D-01

 Vector   69  Occ=0.000000D+00  E= 5.388625D-01

         Total SCF energy =   -644.675706793447
@    5    -644.67570679 -9.0D-08  0.00006  0.00001  0.00052  0.00257    137.8
         Total SCF energy =   -644.675706835039

 Vector   14  Occ=2.000000D+00  E=-1.498274D+00

 Vector   15  Occ=2.000000D+00  E=-1.487593D+00

 Vector   16  Occ=2.000000D+00  E=-1.391650D+00

 Vector   17  Occ=2.000000D+00  E=-1.382666D+00

 Vector   18  Occ=2.000000D+00  E=-1.191590D+00

 Vector   19  Occ=2.000000D+00  E=-1.073273D+00

 Vector   20  Occ=2.000000D+00  E=-1.064644D+00

 Vector   21  Occ=2.000000D+00  E=-1.022213D+00

 Vector   22  Occ=2.000000D+00  E=-9.258354D-01

 Vector   23  Occ=2.000000D+00  E=-8.774453D-01

 Vector   24  Occ=2.000000D+00  E=-8.373309D-01

 Vector   25  Occ=2.000000D+00  E=-8.044862D-01

 Vector   26  Occ=2.000000D+00  E=-7.343349D-01

 Vector   27  Occ=2.000000D+00  E=-7.187117D-01

 Vector   28  Occ=2.000000D+00  E=-6.995146D-01

 Vector   29  Occ=2.000000D+00  E=-6.938094D-01

 Vector   30  Occ=2.000000D+00  E=-6.749419D-01

 Vector   31  Occ=2.000000D+00  E=-6.682873D-01

 Vector   32  Occ=2.000000D+00  E=-6.478716D-01

 Vector   33  Occ=2.000000D+00  E=-6.360897D-01

 Vector   34  Occ=2.000000D+00  E=-6.258463D-01

 Vector   35  Occ=2.000000D+00  E=-5.913546D-01

 Vector   36  Occ=2.000000D+00  E=-5.854589D-01

 Vector   37  Occ=2.000000D+00  E=-5.767572D-01

 Vector   38  Occ=2.000000D+00  E=-5.619667D-01

 Vector   39  Occ=2.000000D+00  E=-5.386739D-01

 Vector   40  Occ=2.000000D+00  E=-5.223919D-01

 Vector   41  Occ=2.000000D+00  E=-5.195588D-01

 Vector   42  Occ=2.000000D+00  E=-4.873068D-01

 Vector   43  Occ=2.000000D+00  E=-4.716433D-01

 Vector   44  Occ=2.000000D+00  E=-4.640512D-01

 Vector   45  Occ=2.000000D+00  E=-4.544329D-01

 Vector   46  Occ=2.000000D+00  E=-3.656899D-01

 Vector   47  Occ=2.000000D+00  E=-3.536089D-01

 Vector   48  Occ=0.000000D+00  E= 7.435173D-02

 Vector   49  Occ=0.000000D+00  E= 1.277586D-01

 Vector   50  Occ=0.000000D+00  E= 1.698401D-01

 Vector   51  Occ=0.000000D+00  E= 2.116895D-01

 Vector   52  Occ=0.000000D+00  E= 2.200934D-01

 Vector   53  Occ=0.000000D+00  E= 2.333324D-01

 Vector   54  Occ=0.000000D+00  E= 2.568718D-01

 Vector   55  Occ=0.000000D+00  E= 2.852958D-01

 Vector   56  Occ=0.000000D+00  E= 2.954893D-01

 Vector   57  Occ=0.000000D+00  E= 3.139886D-01

 Vector   58  Occ=0.000000D+00  E= 3.201890D-01

 Vector   59  Occ=0.000000D+00  E= 3.308650D-01

 Vector   60  Occ=0.000000D+00  E= 3.512336D-01

 Vector   61  Occ=0.000000D+00  E= 3.717794D-01

 Vector   62  Occ=0.000000D+00  E= 4.061998D-01

 Vector   63  Occ=0.000000D+00  E= 4.211757D-01

 Vector   64  Occ=0.000000D+00  E= 4.292486D-01

 Vector   65  Occ=0.000000D+00  E= 4.576056D-01

 Vector   66  Occ=0.000000D+00  E= 4.849909D-01

 Vector   67  Occ=0.000000D+00  E= 4.986144D-01

 Vector   68  Occ=0.000000D+00  E= 4.988710D-01

 Vector   69  Occ=0.000000D+00  E= 5.388648D-01

       Multipole analysis of the density wrt the origin
       ------------------------------------------------

     L   x y z        total         open         nuclear
     -   - - -        -----         ----         -------
     0   0 0 0     -0.000000      0.000000     94.000000

     1   1 0 0      0.776827      0.000000      1.945267
     1   0 1 0      0.243844      0.000000      1.261155
     1   0 0 1     -0.908737      0.000000      6.731341

     2   2 0 0    -53.231174      0.000000    735.341240
     2   1 1 0     -7.298961      0.000000    -50.244918
     2   1 0 1      0.031639      0.000000    -33.037897
     2   0 2 0    -44.773509      0.000000   1259.543604
     2   0 1 1     -3.486194      0.000000     13.523734

         Total SCF energy =   -644.675706835039
@    6    -644.67570684 -4.2D-08  0.00003  0.00000  0.00018  0.00072    156.1
@    6    -644.67570684 -4.2D-08  0.00003  0.00000  0.00018  0.00072    156.1

 Output coordinates in angstroms (scale by  1.889725989 to convert to a.u.)

  No.       Tag          Charge          X              Y              Z
 ---- ---------------- ---------- -------------- -------------- --------------
    1 C                    6.0000    -0.32766826    -2.30187787     0.18547039
    2 C                    6.0000     1.96943331    -0.86456751    -0.34937783
    3 C                    6.0000     0.89006001    -2.95246938     0.14287992
    4 C                    6.0000     2.04277536    -2.22892636    -0.12868176
    5 C                    6.0000     0.43325556     3.44757148    -0.30129848
    6 C                    6.0000    -0.42453232    -0.92754317    -0.03945245
    7 C                    6.0000     0.74722878    -0.22021439    -0.30148963
    8 O                    8.0000    -2.77870923    -1.00866783     0.27177089
    9 O                    8.0000     0.47460209     1.86804392     1.52180506
   10 O                    8.0000    -1.88574755     0.96539357    -0.23389144
   11 C                    6.0000    -1.78386663    -0.35623443     0.02114094
   12 C                    6.0000     0.53834138     2.11134749     0.34321885
   13 O                    8.0000     0.75680424     1.13776128    -0.59497902
   14 H                    1.0000    -2.78484152     1.27865433    -0.16320882
   15 H                    1.0000    -1.22861720    -2.84215653     0.39170019
   16 H                    1.0000     2.84448380    -0.28594867    -0.56266430
   17 H                    1.0000     0.94012903    -4.00841088     0.31810595
   18 H                    1.0000     2.99428203    -2.72197456    -0.16664336
   19 H                    1.0000    -0.41078509     3.44839007    -0.97729084
   20 H                    1.0000     0.30623135     4.20690243     0.45305161
   21 H                    1.0000     1.32274896     3.64915590    -0.88308164

 Total times  cpu:      151.4s     wall:      156.1s
