User input:
--------------------------------------------------------------
$rem
jobtype opt
exchange b3lyp
basis 6-31g
$end

$molecule
0 1
C          2.05639       -0.16543        0.39727
C          0.68890        2.02854       -0.64816
C          2.74071        1.02327        0.12533
C          2.05734        2.11782       -0.40016
C         -3.59396        1.03209        0.04589
C          0.67738       -0.27507        0.15097
C          0.00274        0.84234       -0.35887
O          0.63293       -2.54526        0.93360
O         -1.76452        1.43252        1.56571
O         -1.24894       -1.68411        0.12975
C          0.05278       -1.58881        0.44958
C         -2.15199        1.12841        0.44513
O         -1.36167        0.82832       -0.65825
H         -1.47652       -2.60111        0.39232
H          2.60948       -1.01173        0.80284
H          0.15708        2.88266       -1.05823
H          3.80777        1.09126        0.32364
H          2.59044        3.04081       -0.61405
H         -3.81640        0.02049       -0.30287
H         -4.22480        1.24591        0.91440
H         -3.81296        1.76576       -0.73332
$end
--------------------------------------------------------------

   17    -648.4866030184      1.70E-09 Convergence criterion met
 Total energy in the final basis set = -648.4866030184
   15    -648.4948329492      4.50E-09 Convergence criterion met
 Total energy in the final basis set = -648.4948329492
   13    -648.4953802898      6.20E-09 Convergence criterion met
 Total energy in the final basis set = -648.4953802898
   12    -648.4954444769      8.43E-09 Convergence criterion met
 Total energy in the final basis set = -648.4954444769
   12    -648.4955579771      6.11E-09 Convergence criterion met
 Total energy in the final basis set = -648.4955579771
   12    -648.4955790373      8.94E-09 Convergence criterion met
 Total energy in the final basis set = -648.4955790373
   12    -648.4956597250      4.35E-09 Convergence criterion met
 Total energy in the final basis set = -648.4956597250
   12    -648.4956118241      3.45E-09 Convergence criterion met
 Total energy in the final basis set = -648.4956118241
   11    -648.4956883917      5.30E-09 Convergence criterion met
 Total energy in the final basis set = -648.4956883917
   11    -648.4956987821      4.56E-09 Convergence criterion met
 Total energy in the final basis set = -648.4956987821
   12    -648.4957191221      6.11E-09 Convergence criterion met
 Total energy in the final basis set = -648.4957191221
   11    -648.4957223106      3.74E-09 Convergence criterion met
 Total energy in the final basis set = -648.4957223106
   10    -648.4957233688      4.72E-09 Convergence criterion met
 Total energy in the final basis set = -648.4957233688

       Standard Nuclear Orientation (Angstroms)
    I     Atom         X            Y            Z
 ----------------------------------------------------
    1      C       2.300689    -0.388858     0.178315
    2      C       0.926295     1.971411    -0.369384
    3      C       2.995091     0.816933     0.128785
    4      C       2.304833     2.003008    -0.151351
    5      C      -3.466813     0.531346    -0.238032
    6      C       0.910466    -0.447531    -0.048621
    7      C       0.234449     0.760040    -0.315950
    8      O       0.931830    -2.824628     0.313088
    9      O      -1.818200     0.444089     1.565849
   10      O      -1.028546    -1.868121    -0.325775
   11      C       0.308422    -1.797195     0.009310
   12      C      -2.105526     0.578303     0.382621
   13      O      -1.142019     0.822039    -0.612399
   14      H      -1.322774    -2.801015    -0.241326
   15      H       2.812655    -1.320125     0.389500
   16      H       0.367445     2.874346    -0.583743
   17      H       4.064783     0.833783     0.304967
   18      H       2.834766     2.948644    -0.194936
   19      H      -3.523869    -0.336358    -0.903226
   20      H      -4.223749     0.451608     0.542301
   21      H      -3.643410     1.424296    -0.844731
 ----------------------------------------------------

    9    -648.4957237306      9.17E-09 Convergence criterion met
 Total energy in the final basis set = -648.4957237306
 Final energy is   -648.495723730572
 **  OPTIMIZATION CONVERGED  **

                    Orbital Energies (a.u.)
 --------------------------------------------------------------

 Alpha MOs
 -- Occupied --
-19.202 -19.199 -19.152 -19.151 -10.341 -10.337 -10.276 -10.226
-10.214 -10.210 -10.208 -10.205 -10.199  -1.123  -1.114  -1.040
 -1.030  -0.882  -0.792  -0.786  -0.751  -0.684  -0.647  -0.614
 -0.592  -0.532  -0.510  -0.499  -0.486  -0.473  -0.471  -0.460
 -0.453  -0.450  -0.418  -0.409  -0.404  -0.393  -0.384  -0.369
 -0.364  -0.325  -0.314  -0.289  -0.285  -0.273  -0.260

          Ground-State Mulliken Net Atomic Charges

     Atom                 Charge (a.u.)
  ----------------------------------------
      1 C                    -0.159720
      2 C                    -0.114291
      3 C                    -0.116500
      4 C                    -0.118715
      5 C                    -0.458277
      6 C                     0.116643
      7 C                     0.259030
      8 O                    -0.409124
      9 O                    -0.398249
     10 O                    -0.568226
     11 C                     0.436890
     12 C                     0.533431
     13 O                    -0.552318
     14 H                     0.391446
     15 H                     0.180109
     16 H                     0.148753
     17 H                     0.141436
     18 H                     0.143889
     19 H                     0.190547
     20 H                     0.174400
     21 H                     0.178845
  ----------------------------------------
  Sum of atomic charges =     0.000000

                    Cartesian Multipole Moments
 -----------------------------------------------------------------
    Charge (ESU x 10^10)
                 0.0000
    Dipole Moment (Debye)
         X      -0.5824      Y       1.7342      Z      -2.0224
       Tot       2.7270
    Quadrupole Moments (Debye-Ang)
        XX     -59.5437     XY       8.3691     YY     -70.2351
        XZ       3.5583     YZ       0.5975     ZZ     -81.3552
    Octapole Moments (Debye-Ang^2)
       XXX     -20.8447    XXY       4.2267    XYY     -24.5701
       YYY       9.9426    XXZ      -6.1947    XYZ       1.5699
       YYZ     -11.4296    XZZ       0.1584    YZZ     -10.0855
       ZZZ     -13.4568
    Hexadecapole Moments (Debye-Ang^3)
      XXXX   -1529.5922   XXXY     -19.0808   XXYY    -417.3077
      XYYY      73.2752   YYYY    -971.7231   XXXZ      41.8979
      XXYZ       6.4661   XYYZ       0.6321   YYYZ      38.8412
      XXZZ    -350.3100   XYZZ     -12.6858   YYZZ    -202.7348

 Total job time:  285.51s(wall), 284.45s(cpu)
        *  Thank you very much for using Q-Chem.  Have a nice day.  *
