 Q-Chem 4.3, Q-Chem, Inc., Pleasanton, CA (2015)
 Q-Chem 4.3.0 for Intel X86 EM64T Linux

User input:
--------------------------------------------------------------
$rem
jobtype opt
exchange hf
basis 6-31g
$end

$molecule
0 1
C          2.05639       -0.16543        0.39727
C          0.68890        2.02854       -0.64816
C          2.74071        1.02327        0.12533
C          2.05734        2.11782       -0.40016
C         -3.59396        1.03209        0.04589
C          0.67738       -0.27507        0.15097
C          0.00274        0.84234       -0.35887
O          0.63293       -2.54526        0.93360
O         -1.76452        1.43252        1.56571
O         -1.24894       -1.68411        0.12975
C          0.05278       -1.58881        0.44958
C         -2.15199        1.12841        0.44513
O         -1.36167        0.82832       -0.65825
H         -1.47652       -2.60111        0.39232
H          2.60948       -1.01173        0.80284
H          0.15708        2.88266       -1.05823
H          3.80777        1.09126        0.32364
H          2.59044        3.04081       -0.61405
H         -3.81640        0.02049       -0.30287
H         -4.22480        1.24591        0.91440
H         -3.81296        1.76576       -0.73332
$end
--------------------------------------------------------------

   17    -644.6612036203      3.13E-09 Convergence criterion met
 Total energy in the final basis set = -644.6612036203
   14    -644.6744737321      8.83E-09 Convergence criterion met
 Total energy in the final basis set = -644.6744737321
   14    -644.6750271491      8.59E-09 Convergence criterion met
 Total energy in the final basis set = -644.6750271491
   14    -644.6752856980      6.27E-09 Convergence criterion met
 Total energy in the final basis set = -644.6752856980
   13    -644.6753329185      8.68E-09 Convergence criterion met
 Total energy in the final basis set = -644.6753329185
   13    -644.6753402365      8.89E-09 Convergence criterion met
 Total energy in the final basis set = -644.6753402365
   13    -644.6756356959      5.27E-09 Convergence criterion met
 Total energy in the final basis set = -644.6756356959
   13    -644.6754331644      5.38E-09 Convergence criterion met
 Total energy in the final basis set = -644.6754331644
   13    -644.6756887044      5.38E-09 Convergence criterion met
 Total energy in the final basis set = -644.6756887044
   12    -644.6756940320      4.25E-09 Convergence criterion met
 Total energy in the final basis set = -644.6756940320
   11    -644.6756988384      7.45E-09 Convergence criterion met
 Total energy in the final basis set = -644.6756988384
   11    -644.6757014060      7.12E-09 Convergence criterion met
 Total energy in the final basis set = -644.6757014060
   12    -644.6757046859      4.17E-09 Convergence criterion met
 Total energy in the final basis set = -644.6757046859

             Standard Nuclear Orientation (Angstroms)
    I     Atom           X                Y                Z
 ----------------------------------------------------------------
    1      C       2.2952525691    -0.3888464359     0.1562282881
    2      C       0.9108716788     1.9484585633    -0.3434404574
    3      C       2.9760296554     0.8124366569     0.1170107034
    4      C       2.2789636472     1.9854178813    -0.1368598179
    5      C      -3.4389202801     0.5258688191    -0.2599525186
    6      C       0.9164780287    -0.4490819485    -0.0545668378
    7      C       0.2362384196     0.7424639098    -0.2988838468
    8      O       0.9420291439    -2.8081855487     0.2297183739
    9      O      -1.8387255679     0.5149172601     1.5456397768
   10      O      -1.0159862128    -1.8595804680    -0.2349180367
   11      C       0.3116270073    -1.7942027564     0.0001004058
   12      C      -2.0931758537     0.5917359212     0.3701963721
   13      O      -1.1241692234     0.7886780974    -0.5776842573
   14      H      -1.3512523388    -2.7510655005    -0.1687705644
   15      H       2.8147403178    -1.3050084696     0.3483824094
   16      H       0.3524435618     2.8397320626    -0.5430467329
   17      H       4.0347318233     0.8343273679     0.2811243799
   18      H       2.7955073261     2.9245107592    -0.1721099579
   19      H      -3.4722554280    -0.3190713505    -0.9341015473
   20      H      -4.1936082141     0.4226366821     0.5026640059
   21      H      -3.6200024850     1.4198736988    -0.8414679696
 ----------------------------------------------------------------

   12    -644.6757061614      4.09E-09 Convergence criterion met
 Total energy in the final basis set = -644.6757061614
 Final energy is   -644.675706161376
 **  OPTIMIZATION CONVERGED  **

                    Orbital Energies (a.u.)
 --------------------------------------------------------------

 Alpha MOs
 -- Occupied --
-20.624 -20.620 -20.570 -20.569 -11.424 -11.415 -11.342 -11.278
-11.269 -11.266 -11.257 -11.254 -11.245  -1.498  -1.488  -1.392
 -1.383  -1.192  -1.073  -1.065  -1.022  -0.926  -0.877  -0.837
 -0.804  -0.734  -0.719  -0.700  -0.694  -0.675  -0.668  -0.648
 -0.636  -0.626  -0.591  -0.585  -0.577  -0.562  -0.539  -0.522
 -0.520  -0.487  -0.472  -0.464  -0.454  -0.366  -0.354

          Ground-State Mulliken Net Atomic Charges

     Atom                 Charge (a.u.)
  ----------------------------------------
      1 C                    -0.160512
      2 C                    -0.210788
      3 C                    -0.209272
      4 C                    -0.165375
      5 C                    -0.518854
      6 C                    -0.131222
      7 C                     0.432765
      8 O                    -0.555592
      9 O                    -0.541489
     10 O                    -0.752810
     11 C                     0.807185
     12 C                     0.781325
     13 O                    -0.787885
     14 H                     0.447830
     15 H                     0.271727
     16 H                     0.231562
     17 H                     0.218588
     18 H                     0.221352
     19 H                     0.215099
     20 H                     0.203139
     21 H                     0.203230
  ----------------------------------------
  Sum of atomic charges =    -0.000000

                    Cartesian Multipole Moments
 -----------------------------------------------------------------
    Charge (ESU x 10^10)
                 0.0000
    Dipole Moment (Debye)
         X      -0.5965      Y       2.0070      Z      -2.2758
       Tot       3.0924
    Quadrupole Moments (Debye-Ang)
        XX     -59.6297     XY       9.4976     YY     -72.1095
        XZ       4.5270     YZ      -0.1500     ZZ     -83.9781

 Total job time:  333.96s(wall), 329.30s(cpu)
        *  Thank you very much for using Q-Chem.  Have a nice day.  *
