                         Program Version 3.0.3 - RELEASE   -
|  1> ! rks b3lyp/g 6-31g opt
|  2>
|  3> * xyzfile 0 1 atoms.xyz **                         ****END OF INPUT****
 Total Charge           Charge          ....    0
 Multiplicity           Mult            ....    1
 Number of Electrons    NEL             ....   94
FINAL SINGLE POINT ENERGY      -648.486522811416
FINAL SINGLE POINT ENERGY      -648.494250826924
FINAL SINGLE POINT ENERGY      -648.495147343313
FINAL SINGLE POINT ENERGY      -648.495128419401
FINAL SINGLE POINT ENERGY      -648.495462397591
FINAL SINGLE POINT ENERGY      -648.495508390010
FINAL SINGLE POINT ENERGY      -648.495545506607
FINAL SINGLE POINT ENERGY      -648.495561515590
FINAL SINGLE POINT ENERGY      -648.495586086713
FINAL SINGLE POINT ENERGY      -648.495603895060
FINAL SINGLE POINT ENERGY      -648.495614057494
FINAL SINGLE POINT ENERGY      -648.495618649336
                    ***********************HURRAY********************

CARTESIAN COORDINATES (ANGSTROEM)
---------------------------------
  C      2.089202   -0.160796    0.336972
  C      0.779915    2.111548   -0.601493
  C      2.825404    0.980120    0.028587
  C      2.167495    2.121153   -0.448691
  C     -3.653098    0.935909   -0.014440
  C      0.688596   -0.198137    0.180280
  C      0.046184    0.966175   -0.287212
  O      0.636175   -2.461247    0.990005
  O     -1.921116    1.094261    1.703920
  O     -1.313369   -1.554970    0.250921
  C      0.039072   -1.482833    0.518237
  C     -2.261462    1.026206    0.529041
  O     -1.339881    1.036422   -0.533361
  H     -1.638524   -2.440979    0.521342
  H      2.575302   -1.056702    0.704391
  H      0.245543    2.981303   -0.963934
  H      3.902103    0.981392    0.157327
  H      2.729799    3.015390   -0.695904
  H     -3.782990   -0.037773   -0.497778
  H     -4.372058    1.046049    0.797371
  H     -3.820110    1.706190   -0.773059

 Multiplicity           Mult            ....    1
 Number of Electrons    NEL             ....   94
 Basis Dimension        Dim             ....  133

ORBITAL ENERGIES
----------------

  NO   OCC          E(Eh)            E(eV)
   0   2.0000     -19.201642      -522.5033
   1   2.0000     -19.199230      -522.4376
   2   2.0000     -19.151755      -521.1458
   3   2.0000     -19.150754      -521.1185
   4   2.0000     -10.341270      -281.4003
   5   2.0000     -10.337456      -281.2965
   6   2.0000     -10.276134      -279.6278
   7   2.0000     -10.225762      -278.2571
   8   2.0000     -10.213694      -277.9287
   9   2.0000     -10.209681      -277.8195
  10   2.0000     -10.207721      -277.7662
  11   2.0000     -10.205474      -277.7051
  12   2.0000     -10.198602      -277.5181
  13   2.0000      -1.123328       -30.5673
  14   2.0000      -1.114028       -30.3142
  15   2.0000      -1.040169       -28.3044
  16   2.0000      -1.030306       -28.0360
  17   2.0000      -0.882204       -24.0060
  18   2.0000      -0.792071       -21.5533
  19   2.0000      -0.786218       -21.3941
  20   2.0000      -0.751370       -20.4458
  21   2.0000      -0.683815       -18.6076
  22   2.0000      -0.647149       -17.6098
  23   2.0000      -0.613962       -16.7068
  24   2.0000      -0.591481       -16.0950
  25   2.0000      -0.532008       -14.4767
  26   2.0000      -0.510119       -13.8811
  27   2.0000      -0.499028       -13.5792
  28   2.0000      -0.486423       -13.2362
  29   2.0000      -0.473134       -12.8746
  30   2.0000      -0.471051       -12.8179
  31   2.0000      -0.460348       -12.5267
  32   2.0000      -0.453453       -12.3391
  33   2.0000      -0.450248       -12.2519
  34   2.0000      -0.418384       -11.3848
  35   2.0000      -0.408983       -11.1290
  36   2.0000      -0.403975       -10.9927
  37   2.0000      -0.393368       -10.7041
  38   2.0000      -0.383682       -10.4405
  39   2.0000      -0.369183       -10.0460
  40   2.0000      -0.363863        -9.9012
  41   2.0000      -0.325282        -8.8514
  42   2.0000      -0.314417        -8.5557
  43   2.0000      -0.288604        -7.8533
  44   2.0000      -0.284822        -7.7504
  45   2.0000      -0.273202        -7.4342
  46   2.0000      -0.260515        -7.0890
  47   0.0000      -0.064433        -1.7533
  48   0.0000      -0.020240        -0.5507
  49   0.0000      -0.004924        -0.1340
  50   0.0000       0.039099         1.0639
  51   0.0000       0.059220         1.6115

MULLIKEN ATOMIC CHARGES
-----------------------
   0 C :   -0.160621
   1 C :   -0.115194
   2 C :   -0.116608
   3 C :   -0.118515
   4 C :   -0.457738
   5 C :    0.118249
   6 C :    0.259124
   7 O :   -0.408445
   8 O :   -0.398297
   9 O :   -0.568460
  10 C :    0.435946
  11 C :    0.533855
  12 O :   -0.552495
  13 H :    0.391250
  14 H :    0.178989
  15 H :    0.147895
  16 H :    0.144714
  17 H :    0.143077
  18 H :    0.190027
  19 H :    0.174649
  20 H :    0.178599
Sum of atomic charges:   -0.0000000

LOEWDIN ATOMIC CHARGES
----------------------
   0 C :   -0.070321
   1 C :   -0.123609
   2 C :   -0.116494
   3 C :   -0.084803
   4 C :   -0.342593
   5 C :   -0.085583
   6 C :    0.145926
   7 O :   -0.292944
   8 O :   -0.264478
   9 O :   -0.332555
  10 C :    0.258230
  11 C :    0.277676
  12 O :   -0.235371
  13 H :    0.307863
  14 H :    0.144418
  15 H :    0.134430
  16 H :    0.126343
  17 H :    0.126054
  18 H :    0.148797
  19 H :    0.136501
  20 H :    0.142514

  Mayer bond orders larger than 0.1
B(  0-C ,  2-C ) :   1.4415 B(  0-C ,  5-C ) :   1.3677 B(  0-C , 14-H ) :   0.9100
B(  1-C ,  3-C ) :   1.4309 B(  1-C ,  6-C ) :   1.4193 B(  1-C , 15-H ) :   0.9215
B(  2-C ,  3-C ) :   1.4168 B(  2-C , 16-H ) :   0.9306 B(  3-C , 17-H ) :   0.9284
B(  4-C , 11-C ) :   0.9468 B(  4-C , 18-H ) :   0.9270 B(  4-C , 19-H ) :   0.9417
B(  4-C , 20-H ) :   0.9296 B(  5-C ,  6-C ) :   1.3117 B(  5-C , 10-C ) :   0.9402
B(  6-C , 12-O ) :   0.8249 B(  7-O , 10-C ) :   1.8611 B(  8-O , 11-C ) :   1.9220
B(  9-O , 10-C ) :   0.9669 B(  9-O , 13-H ) :   0.7735 B( 11-C , 12-O ) :   0.8639

FINAL SINGLE POINT ENERGY      -648.495620579978

DIPOLE MOMENT
-------------
                                X             Y             Z
Electronic contribution:      2.27198      -3.07583       1.47659
Nuclear contribution   :     -2.51268       3.61155      -2.37809
                        -----------------------------------------
Total Dipole Moment    :     -0.24069       0.53572      -0.90150
                        -----------------------------------------
Magnitude (a.u.)       :      1.07593
Magnitude (Debye)      :      2.73480

                             ****ORCA TERMINATED NORMALLY****
TOTAL RUN TIME: 0 days 0 hours 32 minutes 8 seconds 29 msec
