============================== echo of input deck ==============================
echo

start hf_scf

geometry units ang
C          2.05639       -0.16543        0.39727
C          0.68890        2.02854       -0.64816
C          2.74071        1.02327        0.12533
C          2.05734        2.11782       -0.40016
C         -3.59396        1.03209        0.04589
C          0.67738       -0.27507        0.15097
C          0.00274        0.84234       -0.35887
O          0.63293       -2.54526        0.93360
O         -1.76452        1.43252        1.56571
O         -1.24894       -1.68411        0.12975
C          0.05278       -1.58881        0.44958
C         -2.15199        1.12841        0.44513
O         -1.36167        0.82832       -0.65825
H         -1.47652       -2.60111        0.39232
H          2.60948       -1.01173        0.80284
H          0.15708        2.88266       -1.05823
H          3.80777        1.09126        0.32364
H          2.59044        3.04081       -0.61405
H         -3.81640        0.02049       -0.30287
H         -4.22480        1.24591        0.91440
H         -3.81296        1.76576       -0.73332
end

basis cartesian print segment
 H library 6-31G
 C library 6-31G
 O library 6-31G
end

scf
  maxiter 20
end

driver
  inhess 1
  maxiter 40
end

task scf optimize
================================================================================

         Total SCF energy =   -644.661205185865
@ Step       Energy      Delta E   Gmax     Grms     Xrms     Xmax   Walltime
@ ---- ---------------- -------- -------- -------- -------- -------- --------
@    0    -644.66120519  0.0D+00  0.03673  0.00776  0.00000  0.00000     85.9
         Total SCF energy =   -644.673100267051
         Total SCF energy =   -644.673625460901
@    1    -644.67362546 -1.2D-02  0.02098  0.00283  0.09465  0.21978    177.0
         Total SCF energy =   -644.674909375668
         Total SCF energy =   -644.674937262613
@    2    -644.67493726 -1.3D-03  0.00798  0.00126  0.07127  0.15281    274.6
         Total SCF energy =   -644.675286391113
         Total SCF energy =   -644.675286391113
@    3    -644.67528639 -3.5D-04  0.00296  0.00061  0.03396  0.11035    345.6
         Total SCF energy =   -644.675439426053
         Total SCF energy =   -644.675439426053
@    4    -644.67543943 -1.5D-04  0.00337  0.00063  0.03219  0.09307    407.9
         Total SCF energy =   -644.675551771105
         Total SCF energy =   -644.675553250611
@    5    -644.67555325 -1.1D-04  0.00125  0.00031  0.01540  0.04937    497.4
         Total SCF energy =   -644.675614618967
         Total SCF energy =   -644.675625331331
@    6    -644.67562533 -7.2D-05  0.00082  0.00024  0.01839  0.04588    584.5
         Total SCF energy =   -644.675664607537
         Total SCF energy =   -644.675674275055
@    7    -644.67567428 -4.9D-05  0.00091  0.00018  0.01948  0.05425    662.0
         Total SCF energy =   -644.675684155391
         Total SCF energy =   -644.675684155391
@    8    -644.67568416 -9.9D-06  0.00019  0.00006  0.00636  0.02047    715.4
         Total SCF energy =   -644.675688180770
         Total SCF energy =   -644.675688900216
@    9    -644.67568890 -4.7D-06  0.00032  0.00009  0.00393  0.01155    790.1
         Total SCF energy =   -644.675691626463
         Total SCF energy =   -644.675692767904
@   10    -644.67569277 -3.9D-06  0.00038  0.00006  0.00469  0.01315    865.4
         Total SCF energy =   -644.675694496625
         Total SCF energy =   -644.675694513985
@   11    -644.67569451 -1.7D-06  0.00023  0.00004  0.00393  0.01295    938.6
         Total SCF energy =   -644.675695536630
         Total SCF energy =   -644.675694836708
@   12    -644.67569484 -3.2D-07  0.00066  0.00011  0.00670  0.01982   1007.2
         Total SCF energy =   -644.675696457779
         Total SCF energy =   -644.675696457779
@   13    -644.67569646 -1.6D-06  0.00005  0.00002  0.00331  0.00888   1075.6
         Total SCF energy =   -644.675696854751
         Total SCF energy =   -644.675696931579
@   14    -644.67569693 -4.7D-07  0.00005  0.00001  0.00114  0.00318   1176.9
         Total SCF energy =   -644.675699027037
         Total SCF energy =   -644.675699801268
@   15    -644.67569980 -2.9D-06  0.00055  0.00010  0.00594  0.02391   1261.8
         Total SCF energy =   -644.675702029000
         Total SCF energy =   -644.675704417408
@   16    -644.67570442 -4.6D-06  0.00056  0.00008  0.01297  0.04478   1356.3
         Total SCF energy =   -644.675706105690
         Total SCF energy =   -644.675706102796
@   17    -644.67570610 -1.7D-06  0.00048  0.00006  0.00308  0.00993   1443.9
         Total SCF energy =   -644.675706504397

 Vector   46  Occ=2.000000D+00  E=-3.656861D-01

 Vector   47  Occ=2.000000D+00  E=-3.536133D-01

 Vector   48  Occ=0.000000D+00  E= 7.435136D-02

 Vector   49  Occ=0.000000D+00  E= 1.277647D-01

 Vector   50  Occ=0.000000D+00  E= 1.698365D-01

 Vector   51  Occ=0.000000D+00  E= 2.116992D-01

 Vector   52  Occ=0.000000D+00  E= 2.200986D-01

 Vector   53  Occ=0.000000D+00  E= 2.333349D-01

 Vector   54  Occ=0.000000D+00  E= 2.568389D-01

 Vector   55  Occ=0.000000D+00  E= 2.852996D-01

 Vector   56  Occ=0.000000D+00  E= 2.954824D-01

 Vector   57  Occ=0.000000D+00  E= 3.139881D-01

 Vector   58  Occ=0.000000D+00  E= 3.201943D-01

 Vector   59  Occ=0.000000D+00  E= 3.308390D-01

 Vector   60  Occ=0.000000D+00  E= 3.512436D-01

 Vector   61  Occ=0.000000D+00  E= 3.717982D-01

 Vector   62  Occ=0.000000D+00  E= 4.061794D-01

 Vector   63  Occ=0.000000D+00  E= 4.211833D-01

 Vector   64  Occ=0.000000D+00  E= 4.292474D-01

 Vector   65  Occ=0.000000D+00  E= 4.576171D-01

 Vector   66  Occ=0.000000D+00  E= 4.849969D-01

 Vector   67  Occ=0.000000D+00  E= 4.986178D-01

 Vector   68  Occ=0.000000D+00  E= 4.988548D-01

 Vector   69  Occ=0.000000D+00  E= 5.388629D-01

         Total SCF energy =   -644.675706504397
@   18    -644.67570650 -4.0D-07  0.00004  0.00001  0.00070  0.00305   1502.0
         Total SCF energy =   -644.675706608673

 Vector   14  Occ=2.000000D+00  E=-1.498265D+00

 Vector   15  Occ=2.000000D+00  E=-1.487583D+00

 Vector   16  Occ=2.000000D+00  E=-1.391652D+00

 Vector   17  Occ=2.000000D+00  E=-1.382663D+00

 Vector   18  Occ=2.000000D+00  E=-1.191590D+00

 Vector   19  Occ=2.000000D+00  E=-1.073272D+00

 Vector   20  Occ=2.000000D+00  E=-1.064641D+00

 Vector   21  Occ=2.000000D+00  E=-1.022210D+00

 Vector   22  Occ=2.000000D+00  E=-9.258298D-01

 Vector   23  Occ=2.000000D+00  E=-8.774361D-01

 Vector   24  Occ=2.000000D+00  E=-8.373257D-01

 Vector   25  Occ=2.000000D+00  E=-8.044816D-01

 Vector   26  Occ=2.000000D+00  E=-7.343348D-01

 Vector   27  Occ=2.000000D+00  E=-7.187087D-01

 Vector   28  Occ=2.000000D+00  E=-6.995101D-01

 Vector   29  Occ=2.000000D+00  E=-6.938036D-01

 Vector   30  Occ=2.000000D+00  E=-6.749433D-01

 Vector   31  Occ=2.000000D+00  E=-6.682772D-01

 Vector   32  Occ=2.000000D+00  E=-6.478799D-01

 Vector   33  Occ=2.000000D+00  E=-6.360833D-01

 Vector   34  Occ=2.000000D+00  E=-6.258409D-01

 Vector   35  Occ=2.000000D+00  E=-5.913524D-01

 Vector   36  Occ=2.000000D+00  E=-5.854602D-01

 Vector   37  Occ=2.000000D+00  E=-5.767587D-01

 Vector   38  Occ=2.000000D+00  E=-5.619612D-01

 Vector   39  Occ=2.000000D+00  E=-5.386600D-01

 Vector   40  Occ=2.000000D+00  E=-5.223921D-01

 Vector   41  Occ=2.000000D+00  E=-5.195636D-01

 Vector   42  Occ=2.000000D+00  E=-4.873081D-01

 Vector   43  Occ=2.000000D+00  E=-4.716432D-01

 Vector   44  Occ=2.000000D+00  E=-4.640503D-01

 Vector   45  Occ=2.000000D+00  E=-4.544309D-01

 Vector   46  Occ=2.000000D+00  E=-3.656888D-01

 Vector   47  Occ=2.000000D+00  E=-3.536105D-01

 Vector   48  Occ=0.000000D+00  E= 7.435037D-02

 Vector   49  Occ=0.000000D+00  E= 1.277622D-01

 Vector   50  Occ=0.000000D+00  E= 1.698412D-01

 Vector   51  Occ=0.000000D+00  E= 2.116783D-01

 Vector   52  Occ=0.000000D+00  E= 2.200983D-01

 Vector   53  Occ=0.000000D+00  E= 2.333322D-01

 Vector   54  Occ=0.000000D+00  E= 2.568645D-01

 Vector   55  Occ=0.000000D+00  E= 2.852985D-01

 Vector   56  Occ=0.000000D+00  E= 2.954869D-01

 Vector   57  Occ=0.000000D+00  E= 3.139866D-01

 Vector   58  Occ=0.000000D+00  E= 3.201959D-01

 Vector   59  Occ=0.000000D+00  E= 3.308522D-01

 Vector   60  Occ=0.000000D+00  E= 3.512453D-01

 Vector   61  Occ=0.000000D+00  E= 3.717808D-01

 Vector   62  Occ=0.000000D+00  E= 4.061983D-01

 Vector   63  Occ=0.000000D+00  E= 4.211803D-01

 Vector   64  Occ=0.000000D+00  E= 4.292363D-01

 Vector   65  Occ=0.000000D+00  E= 4.576111D-01

 Vector   66  Occ=0.000000D+00  E= 4.849768D-01

 Vector   67  Occ=0.000000D+00  E= 4.986150D-01

 Vector   68  Occ=0.000000D+00  E= 4.988648D-01

 Vector   69  Occ=0.000000D+00  E= 5.388707D-01

       Multipole analysis of the density wrt the origin
       ------------------------------------------------

     L   x y z        total         open         nuclear
     -   - - -        -----         ----         -------
     0   0 0 0      0.000000      0.000000     94.000000

     1   1 0 0      0.778991      0.000000      1.914109
     1   0 1 0      0.244019      0.000000      1.257287
     1   0 0 1     -0.907283      0.000000      6.635118

     2   2 0 0    -53.228989      0.000000    735.540856
     2   1 1 0     -7.290074      0.000000    -50.318209
     2   1 0 1      0.056506      0.000000    -31.166884
     2   0 2 0    -44.773574      0.000000   1259.550656
     2   0 1 1     -3.501691      0.000000     13.906328

         Total SCF energy =   -644.675706608673
@   19    -644.67570661 -1.0D-07  0.00005  0.00001  0.00058  0.00176   1565.2
@   19    -644.67570661 -1.0D-07  0.00005  0.00001  0.00058  0.00176   1565.2

 Output coordinates in angstroms (scale by  1.889725989 to convert to a.u.)

  No.       Tag          Charge          X              Y              Z
 ---- ---------------- ---------- -------------- -------------- --------------
    1 C                    6.0000    -0.32806923    -2.30196371     0.18316183
    2 C                    6.0000     1.97046218    -0.86425809    -0.34451463
    3 C                    6.0000     0.88978650    -2.95248964     0.14351422
    4 C                    6.0000     2.04322654    -2.22875826    -0.12447438
    5 C                    6.0000     0.43338597     3.44767154    -0.29922086
    6 C                    6.0000    -0.42437932    -0.92753129    -0.04145873
    7 C                    6.0000     0.74807874    -0.22001711    -0.29978468
    8 O                    8.0000    -2.77946084    -1.00914131     0.26230189
    9 O                    8.0000     0.47044233     1.86761296     1.52352101
   10 O                    8.0000    -1.88524330     0.96536820    -0.23933261
   11 C                    6.0000    -1.78393698    -0.35640277     0.01522954
   12 C                    6.0000     0.53721681     2.11130362     0.34519159
   13 O                    8.0000     0.75832454     1.13806402    -0.59279746
   14 H                    1.0000    -2.78478462     1.27826580    -0.17227669
   15 H                    1.0000    -1.22962832    -2.84250758     0.38603822
   16 H                    1.0000     2.84612225    -0.28543966    -0.55474393
   17 H                    1.0000     0.93937966    -4.00857506     0.31803943
   18 H                    1.0000     2.99483199    -2.72178879    -0.16018168
   19 H                    1.0000    -0.40774953     3.44779138    -0.97880833
   20 H                    1.0000     0.30247829     4.20660679     0.45486455
   21 H                    1.0000     1.32512444     3.65041782    -0.87718407

 Total times  cpu:     1482.7s     wall:     1565.3s
