                         Program Version 2.9.1 -  RELEASE  -
|  1> ! rks b3lyp 6-31g opt
|  2>
|  3> * xyzfile 0 1 atoms.xyz **                         ****END OF INPUT****
 Total Charge           Charge          ....    0
 Multiplicity           Mult            ....    1
 Number of Electrons    NEL             ....   94
FINAL SINGLE POINT ENERGY      -648.137299191882
FINAL SINGLE POINT ENERGY      -648.145086546434
FINAL SINGLE POINT ENERGY      -648.145979899949
FINAL SINGLE POINT ENERGY      -648.145969891356
FINAL SINGLE POINT ENERGY      -648.146288567953
FINAL SINGLE POINT ENERGY      -648.146337948271
FINAL SINGLE POINT ENERGY      -648.146370633971
FINAL SINGLE POINT ENERGY      -648.146387135442
FINAL SINGLE POINT ENERGY      -648.146411589829
FINAL SINGLE POINT ENERGY      -648.146432577100
FINAL SINGLE POINT ENERGY      -648.146446034698
FINAL SINGLE POINT ENERGY      -648.146450881791
FINAL SINGLE POINT ENERGY      -648.146452148338
                    ***********************HURRAY********************

CARTESIAN COORDINATES (ANGSTROEM)
---------------------------------
  C      2.090158   -0.161459    0.334322
  C      0.779772    2.113437   -0.598247
  C      2.826252    0.980308    0.027602
  C      2.167806    2.122761   -0.446270
  C     -3.654484    0.937472   -0.015109
  C      0.689011   -0.198487    0.178872
  C      0.046249    0.966934   -0.286316
  O      0.637655   -2.461803    0.988504
  O     -1.922800    1.089034    1.704322
  O     -1.312918   -1.557005    0.250107
  C      0.039727   -1.483755    0.516569
  C     -2.262542    1.025604    0.528896
  O     -1.340048    1.036943   -0.532802
  H     -1.637244   -2.443157    0.522027
  H      2.576804   -1.058411    0.699321
  H      0.245036    2.984286   -0.958423
  H      3.903395    0.981188    0.155361
  H      2.729987    3.017984   -0.691606
  H     -3.792233   -0.045636   -0.477796
  H     -4.373764    1.069637    0.793579
  H     -3.813642    1.692803   -0.790395

 Multiplicity           Mult            ....    1
 Number of Electrons    NEL             ....   94
 Basis Dimension        Dim             ....  133

ORBITAL ENERGIES
----------------

  NO   OCC          E(Eh)            E(eV)
   0   2.0000     -19.198006      -522.4043
   1   2.0000     -19.195651      -522.3402
   2   2.0000     -19.148082      -521.0458
   3   2.0000     -19.147114      -521.0195
   4   2.0000     -10.337502      -281.2977
   5   2.0000     -10.333685      -281.1939
   6   2.0000     -10.272480      -279.5284
   7   2.0000     -10.222139      -278.1585
   8   2.0000     -10.210092      -277.8307
   9   2.0000     -10.206061      -277.7210
  10   2.0000     -10.204134      -277.6686
  11   2.0000     -10.201867      -277.6069
  12   2.0000     -10.195022      -277.4206
  13   2.0000      -1.119679       -30.4680
  14   2.0000      -1.110405       -30.2157
  15   2.0000      -1.036542       -28.2057
  16   2.0000      -1.026650       -27.9366
  17   2.0000      -0.878567       -23.9070
  18   2.0000      -0.788458       -21.4550
  19   2.0000      -0.782597       -21.2955
  20   2.0000      -0.747791       -20.3484
  21   2.0000      -0.680203       -18.5093
  22   2.0000      -0.643591       -17.5130
  23   2.0000      -0.610376       -16.6092
  24   2.0000      -0.587896       -15.9975
  25   2.0000      -0.528452       -14.3799
  26   2.0000      -0.506530       -13.7834
  27   2.0000      -0.495480       -13.4827
  28   2.0000      -0.482833       -13.1385
  29   2.0000      -0.469577       -12.7778
  30   2.0000      -0.467526       -12.7220
  31   2.0000      -0.456772       -12.4294
  32   2.0000      -0.449908       -12.2426
  33   2.0000      -0.446708       -12.1555
  34   2.0000      -0.414829       -11.2881
  35   2.0000      -0.405472       -11.0335
  36   2.0000      -0.400444       -10.8966
  37   2.0000      -0.389805       -10.6071
  38   2.0000      -0.380134       -10.3440
  39   2.0000      -0.365667        -9.9503
  40   2.0000      -0.360338        -9.8053
  41   2.0000      -0.321721        -8.7545
  42   2.0000      -0.310893        -8.4598
  43   2.0000      -0.285062        -7.7569
  44   2.0000      -0.281298        -7.6545
  45   2.0000      -0.269700        -7.3389
  46   2.0000      -0.257064        -6.9951
  47   0.0000      -0.061014        -1.6603
  48   0.0000      -0.016910        -0.4601
  49   0.0000      -0.001463        -0.0398
  50   0.0000       0.042467         1.1556
  51   0.0000       0.062261         1.6942

MULLIKEN ATOMIC CHARGES
-----------------------
   0 C :   -0.160289
   1 C :   -0.114735
   2 C :   -0.116113
   3 C :   -0.118166
   4 C :   -0.456581
   5 C :    0.118181
   6 C :    0.258971
   7 O :   -0.408173
   8 O :   -0.398069
   9 O :   -0.567997
  10 C :    0.435622
  11 C :    0.533485
  12 O :   -0.552126
  13 H :    0.391010
  14 H :    0.178621
  15 H :    0.147483
  16 H :    0.144209
  17 H :    0.142656
  18 H :    0.189716
  19 H :    0.174259
  20 H :    0.178035
Sum of atomic charges:   -0.0000000

LOEWDIN ATOMIC CHARGES
----------------------
   0 C :   -0.070262
   1 C :   -0.123522
   2 C :   -0.116369
   3 C :   -0.084712
   4 C :   -0.342210
   5 C :   -0.085475
   6 C :    0.145959
   7 O :   -0.292874
   8 O :   -0.264453
   9 O :   -0.332410
  10 C :    0.258165
  11 C :    0.277569
  12 O :   -0.235278
  13 H :    0.307764
  14 H :    0.144315
  15 H :    0.134304
  16 H :    0.126201
  17 H :    0.125928
  18 H :    0.148787
  19 H :    0.136376
  20 H :    0.142197

  Mayer bond orders larger than 0.1
B(  0-C ,  2-C ) :   1.4414 B(  0-C ,  5-C ) :   1.3676 B(  0-C , 14-H ) :   0.9101
B(  1-C ,  3-C ) :   1.4307 B(  1-C ,  6-C ) :   1.4191 B(  1-C , 15-H ) :   0.9216
B(  2-C ,  3-C ) :   1.4167 B(  2-C , 16-H ) :   0.9307 B(  3-C , 17-H ) :   0.9284
B(  4-C , 11-C ) :   0.9469 B(  4-C , 18-H ) :   0.9270 B(  4-C , 19-H ) :   0.9417
B(  4-C , 20-H ) :   0.9297 B(  5-C ,  6-C ) :   1.3117 B(  5-C , 10-C ) :   0.9402
B(  6-C , 12-O ) :   0.8248 B(  7-O , 10-C ) :   1.8612 B(  8-O , 11-C ) :   1.9221
B(  9-O , 10-C ) :   0.9672 B(  9-O , 13-H ) :   0.7736 B( 11-C , 12-O ) :   0.8643

FINAL SINGLE POINT ENERGY      -648.146452218985

DIPOLE MOMENT
-------------
                                X             Y             Z
Electronic contribution:      2.27334      -3.08132       1.47468
Nuclear contribution   :     -2.51370       3.61802      -2.37465
                        -----------------------------------------
Total Dipole Moment    :     -0.24036       0.53671      -0.89997
                        -----------------------------------------
Magnitude (a.u.)       :      1.07507
Magnitude (Debye)      :      2.73260

                             ****ORCA TERMINATED NORMALLY****
TOTAL RUN TIME: 0 days 0 hours 18 minutes 3 seconds 199 msec
