============================== echo of input deck ==============================
echo

start hf_scf

geometry units ang
C          2.05639       -0.16543        0.39727
C          0.68890        2.02854       -0.64816
C          2.74071        1.02327        0.12533
C          2.05734        2.11782       -0.40016
C         -3.59396        1.03209        0.04589
C          0.67738       -0.27507        0.15097
C          0.00274        0.84234       -0.35887
O          0.63293       -2.54526        0.93360
O         -1.76452        1.43252        1.56571
O         -1.24894       -1.68411        0.12975
C          0.05278       -1.58881        0.44958
C         -2.15199        1.12841        0.44513
O         -1.36167        0.82832       -0.65825
H         -1.47652       -2.60111        0.39232
H          2.60948       -1.01173        0.80284
H          0.15708        2.88266       -1.05823
H          3.80777        1.09126        0.32364
H          2.59044        3.04081       -0.61405
H         -3.81640        0.02049       -0.30287
H         -4.22480        1.24591        0.91440
H         -3.81296        1.76576       -0.73332
end

basis cartesian print segment
 H library 6-31G
 C library 6-31G
 O library 6-31G
end

scf
  maxiter 20
end

driver
  maxiter 40
end

task scf optimize
================================================================================

         Total SCF energy =   -644.661205185859
@ Step       Energy      Delta E   Gmax     Grms     Xrms     Xmax   Walltime
@ ---- ---------------- -------- -------- -------- -------- -------- --------
@    0    -644.66120519  0.0D+00  0.03673  0.00776  0.00000  0.00000     49.2
         Total SCF energy =   -644.673100267055
         Total SCF energy =   -644.673625460910
@    1    -644.67362546 -1.2D-02  0.02098  0.00283  0.09465  0.21978    114.3
         Total SCF energy =   -644.674909375686
         Total SCF energy =   -644.674937262629
@    2    -644.67493726 -1.3D-03  0.00798  0.00126  0.07127  0.15281    180.3
         Total SCF energy =   -644.675286391104
         Total SCF energy =   -644.675286391104
@    3    -644.67528639 -3.5D-04  0.00296  0.00061  0.03396  0.11035    226.3
         Total SCF energy =   -644.675439426065
         Total SCF energy =   -644.675439426065
@    4    -644.67543943 -1.5D-04  0.00337  0.00063  0.03219  0.09307    266.6
         Total SCF energy =   -644.675551771107
         Total SCF energy =   -644.675553250599
@    5    -644.67555325 -1.1D-04  0.00125  0.00031  0.01540  0.04937    332.6
         Total SCF energy =   -644.675614618975
         Total SCF energy =   -644.675625331348
@    6    -644.67562533 -7.2D-05  0.00082  0.00024  0.01839  0.04588    396.5
         Total SCF energy =   -644.675664607542
         Total SCF energy =   -644.675674275063
@    7    -644.67567428 -4.9D-05  0.00091  0.00018  0.01948  0.05425    461.4
         Total SCF energy =   -644.675684155398
         Total SCF energy =   -644.675684155398
@    8    -644.67568416 -9.9D-06  0.00019  0.00006  0.00636  0.02047    502.6
         Total SCF energy =   -644.675688180752
         Total SCF energy =   -644.675688900222
@    9    -644.67568890 -4.7D-06  0.00032  0.00009  0.00393  0.01155    563.4
         Total SCF energy =   -644.675691626470
         Total SCF energy =   -644.675692767982
@   10    -644.67569277 -3.9D-06  0.00038  0.00006  0.00469  0.01315    624.9
         Total SCF energy =   -644.675694495808
         Total SCF energy =   -644.675694506137
@   11    -644.67569451 -1.7D-06  0.00023  0.00004  0.00393  0.01294    685.8
         Total SCF energy =   -644.675695536685
         Total SCF energy =   -644.675694646198
@   12    -644.67569465 -1.4D-07  0.00070  0.00012  0.00700  0.02071    754.6
         Total SCF energy =   -644.675696458070
         Total SCF energy =   -644.675696458070
@   13    -644.67569646 -1.8D-06  0.00005  0.00002  0.00360  0.00969    797.4
         Total SCF energy =   -644.675696845831
         Total SCF energy =   -644.675696926380
@   14    -644.67569693 -4.7D-07  0.00004  0.00001  0.00112  0.00312    861.1
         Total SCF energy =   -644.675699094092
         Total SCF energy =   -644.675699875517
@   15    -644.67569988 -2.9D-06  0.00052  0.00009  0.00605  0.02427    925.7
         Total SCF energy =   -644.675702118172
         Total SCF energy =   -644.675704404873
@   16    -644.67570440 -4.5D-06  0.00056  0.00008  0.01331  0.04595    988.8
         Total SCF energy =   -644.675706098053
         Total SCF energy =   -644.675706112522
@   17    -644.67570611 -1.7D-06  0.00046  0.00006  0.00293  0.00811   1051.0
         Total SCF energy =   -644.675706507798
         Total SCF energy =   -644.675706507798
@   18    -644.67570651 -4.0D-07  0.00004  0.00001  0.00065  0.00241   1090.9
         Total SCF energy =   -644.675706614143
         Total SCF energy =   -644.675706614143
@   19    -644.67570661 -1.1D-07  0.00005  0.00001  0.00062  0.00187   1130.0
         Total SCF energy =   -644.675706741827
         Total SCF energy =   -644.675706377096
@   20    -644.67570638  2.4D-07  0.00011  0.00002  0.00202  0.00634   1189.5
         Total SCF energy =   -644.675706685320
         Total SCF energy =   -644.675706775569

 Vector   46  Occ=2.000000D+00  E=-3.656873D-01

 Vector   47  Occ=2.000000D+00  E=-3.536053D-01

 Vector   48  Occ=0.000000D+00  E= 7.435136D-02

 Vector   49  Occ=0.000000D+00  E= 1.277589D-01

 Vector   50  Occ=0.000000D+00  E= 1.698352D-01

 Vector   51  Occ=0.000000D+00  E= 2.116881D-01

 Vector   52  Occ=0.000000D+00  E= 2.200920D-01

 Vector   53  Occ=0.000000D+00  E= 2.333334D-01

 Vector   54  Occ=0.000000D+00  E= 2.568713D-01

 Vector   55  Occ=0.000000D+00  E= 2.852963D-01

 Vector   56  Occ=0.000000D+00  E= 2.954874D-01

 Vector   57  Occ=0.000000D+00  E= 3.139884D-01

 Vector   58  Occ=0.000000D+00  E= 3.201884D-01

 Vector   59  Occ=0.000000D+00  E= 3.308638D-01

 Vector   60  Occ=0.000000D+00  E= 3.512295D-01

 Vector   61  Occ=0.000000D+00  E= 3.717894D-01

 Vector   62  Occ=0.000000D+00  E= 4.061945D-01

 Vector   63  Occ=0.000000D+00  E= 4.211768D-01

 Vector   64  Occ=0.000000D+00  E= 4.292407D-01

 Vector   65  Occ=0.000000D+00  E= 4.576020D-01

 Vector   66  Occ=0.000000D+00  E= 4.849887D-01

 Vector   67  Occ=0.000000D+00  E= 4.986159D-01

 Vector   68  Occ=0.000000D+00  E= 4.988669D-01

 Vector   69  Occ=0.000000D+00  E= 5.388604D-01

@   21    -644.67570678 -4.0D-07  0.00001  0.00000  0.00130  0.00408   1250.0
         Total SCF energy =   -644.675706799379

 Vector   14  Occ=2.000000D+00  E=-1.498264D+00

 Vector   15  Occ=2.000000D+00  E=-1.487590D+00

 Vector   16  Occ=2.000000D+00  E=-1.391653D+00

 Vector   17  Occ=2.000000D+00  E=-1.382654D+00

 Vector   18  Occ=2.000000D+00  E=-1.191590D+00

 Vector   19  Occ=2.000000D+00  E=-1.073271D+00

 Vector   20  Occ=2.000000D+00  E=-1.064645D+00

 Vector   21  Occ=2.000000D+00  E=-1.022214D+00

 Vector   22  Occ=2.000000D+00  E=-9.258355D-01

 Vector   23  Occ=2.000000D+00  E=-8.774429D-01

 Vector   24  Occ=2.000000D+00  E=-8.373345D-01

 Vector   25  Occ=2.000000D+00  E=-8.044849D-01

 Vector   26  Occ=2.000000D+00  E=-7.343316D-01

 Vector   27  Occ=2.000000D+00  E=-7.187065D-01

 Vector   28  Occ=2.000000D+00  E=-6.995158D-01

 Vector   29  Occ=2.000000D+00  E=-6.938113D-01

 Vector   30  Occ=2.000000D+00  E=-6.749383D-01

 Vector   31  Occ=2.000000D+00  E=-6.682873D-01

 Vector   32  Occ=2.000000D+00  E=-6.478624D-01

 Vector   33  Occ=2.000000D+00  E=-6.360885D-01

 Vector   34  Occ=2.000000D+00  E=-6.258460D-01

 Vector   35  Occ=2.000000D+00  E=-5.913492D-01

 Vector   36  Occ=2.000000D+00  E=-5.854613D-01

 Vector   37  Occ=2.000000D+00  E=-5.767571D-01

 Vector   38  Occ=2.000000D+00  E=-5.619686D-01

 Vector   39  Occ=2.000000D+00  E=-5.386751D-01

 Vector   40  Occ=2.000000D+00  E=-5.223928D-01

 Vector   41  Occ=2.000000D+00  E=-5.195569D-01

 Vector   42  Occ=2.000000D+00  E=-4.873023D-01

 Vector   43  Occ=2.000000D+00  E=-4.716442D-01

 Vector   44  Occ=2.000000D+00  E=-4.640513D-01

 Vector   45  Occ=2.000000D+00  E=-4.544361D-01

 Vector   46  Occ=2.000000D+00  E=-3.656881D-01

 Vector   47  Occ=2.000000D+00  E=-3.536075D-01

 Vector   48  Occ=0.000000D+00  E= 7.435045D-02

 Vector   49  Occ=0.000000D+00  E= 1.277586D-01

 Vector   50  Occ=0.000000D+00  E= 1.698358D-01

 Vector   51  Occ=0.000000D+00  E= 2.116892D-01

 Vector   52  Occ=0.000000D+00  E= 2.200909D-01

 Vector   53  Occ=0.000000D+00  E= 2.333324D-01

 Vector   54  Occ=0.000000D+00  E= 2.568685D-01

 Vector   55  Occ=0.000000D+00  E= 2.852949D-01

 Vector   56  Occ=0.000000D+00  E= 2.954866D-01

 Vector   57  Occ=0.000000D+00  E= 3.139878D-01

 Vector   58  Occ=0.000000D+00  E= 3.201877D-01

 Vector   59  Occ=0.000000D+00  E= 3.308621D-01

 Vector   60  Occ=0.000000D+00  E= 3.512278D-01

 Vector   61  Occ=0.000000D+00  E= 3.717905D-01

 Vector   62  Occ=0.000000D+00  E= 4.061921D-01

 Vector   63  Occ=0.000000D+00  E= 4.211760D-01

 Vector   64  Occ=0.000000D+00  E= 4.292421D-01

 Vector   65  Occ=0.000000D+00  E= 4.576019D-01

 Vector   66  Occ=0.000000D+00  E= 4.849883D-01

 Vector   67  Occ=0.000000D+00  E= 4.986148D-01

 Vector   68  Occ=0.000000D+00  E= 4.988666D-01

 Vector   69  Occ=0.000000D+00  E= 5.388595D-01

       Multipole analysis of the density wrt the origin
       ------------------------------------------------

     L   x y z        total         open         nuclear
     -   - - -        -----         ----         -------
     0   0 0 0     -0.000000      0.000000     94.000000

     1   1 0 0      0.779762      0.000000      1.896370
     1   0 1 0      0.244476      0.000000      1.248542
     1   0 0 1     -0.906383      0.000000      6.615661

     2   2 0 0    -53.229805      0.000000    735.535056
     2   1 1 0     -7.288578      0.000000    -50.375802
     2   1 0 1      0.058061      0.000000    -31.198650
     2   0 2 0    -44.770879      0.000000   1259.486752
     2   0 1 1     -3.498871      0.000000     13.867732

         Total SCF energy =   -644.675706799379
@   22    -644.67570680 -2.4D-08  0.00001  0.00000  0.00011  0.00047   1288.2
@   22    -644.67570680 -2.4D-08  0.00001  0.00000  0.00011  0.00047   1288.2

 Output coordinates in angstroms (scale by  1.889725989 to convert to a.u.)

  No.       Tag          Charge          X              Y              Z
 ---- ---------------- ---------- -------------- -------------- --------------
    1 C                    6.0000    -0.32802671    -2.30202220     0.18288160
    2 C                    6.0000     1.97044677    -0.86422761    -0.34471778
    3 C                    6.0000     0.88989518    -2.95244915     0.14359131
    4 C                    6.0000     2.04330478    -2.22866530    -0.12433351
    5 C                    6.0000     0.43360090     3.44770521    -0.29906896
    6 C                    6.0000    -0.42441029    -0.92760805    -0.04180355
    7 C                    6.0000     0.74803542    -0.22003965    -0.30010111
    8 O                    8.0000    -2.77947862    -1.00910903     0.26265555
    9 O                    8.0000     0.46927616     1.86724223     1.52337910
   10 O                    8.0000    -1.88534976     0.96516054    -0.24018809
   11 C                    6.0000    -1.78399206    -0.35648912     0.01500541
   12 C                    6.0000     0.53678563     2.11116824     0.34512738
   13 O                    8.0000     0.75836785     1.13807899    -0.59286528
   14 H                    1.0000    -2.78466142     1.27834170    -0.17197199
   15 H                    1.0000    -1.22951045    -2.84251408     0.38621136
   16 H                    1.0000     2.84605886    -0.28539968    -0.55512335
   17 H                    1.0000     0.93957030    -4.00846611     0.31849982
   18 H                    1.0000     2.99497882    -2.72158463    -0.15969048
   19 H                    1.0000    -0.40824979     3.44873593    -0.97779059
   20 H                    1.0000     0.30401600     4.20665062     0.45524087
   21 H                    1.0000     1.32495053     3.64972004    -0.87785349

 Total times  cpu:     1195.6s     wall:     1288.2s
