                         Program Version 3.0.1 -  RELEASE  -
|  1> ! rhf 6-31g opt
|  2>
|  3> * xyzfile 0 1 atoms.xyz **                         ****END OF INPUT****
 Total Charge           Charge          ....    0
 Multiplicity           Mult            ....    1
 Number of Electrons    NEL             ....   94
FINAL SINGLE POINT ENERGY      -644.661203607693
FINAL SINGLE POINT ENERGY      -644.673781961549
FINAL SINGLE POINT ENERGY      -644.675036955034
FINAL SINGLE POINT ENERGY      -644.674927126406
FINAL SINGLE POINT ENERGY      -644.675512266454
FINAL SINGLE POINT ENERGY      -644.675513606557
FINAL SINGLE POINT ENERGY      -644.675669340159
FINAL SINGLE POINT ENERGY      -644.675638465498
FINAL SINGLE POINT ENERGY      -644.675691788669
FINAL SINGLE POINT ENERGY      -644.675694726049
FINAL SINGLE POINT ENERGY      -644.675703685076
FINAL SINGLE POINT ENERGY      -644.675705079691
                    ***********************HURRAY********************

CARTESIAN COORDINATES (ANGSTROEM)
---------------------------------
  C      2.082345   -0.166626    0.312225
  C      0.765728    2.096387   -0.567787
  C      2.805834    0.972259    0.016728
  C      2.142589    2.107554   -0.427899
  C     -3.626108    0.921115   -0.037837
  C      0.693584   -0.200870    0.173110
  C      0.048363    0.953472   -0.266334
  O      0.642968   -2.462186    0.901249
  O     -1.941351    1.177405    1.670056
  O     -1.297878   -1.527659    0.344498
  C      0.041196   -1.481526    0.508257
  C     -2.249714    1.041846    0.512976
  O     -1.321218    1.010001   -0.493573
  H     -1.663493   -2.373822    0.593116
  H      2.574901   -1.053421    0.654512
  H      0.232422    2.958836   -0.911033
  H      3.871352    0.975225    0.130379
  H      2.692448    2.997745   -0.662759
  H     -3.723970   -0.032338   -0.538639
  H     -4.345977    0.996996    0.760804
  H     -3.801842    1.698289   -0.769529

 Multiplicity           Mult            ....    1
 Number of Electrons    NEL             ....   94
 Basis Dimension        Dim             ....  133

ORBITAL ENERGIES
----------------

  NO   OCC          E(Eh)            E(eV)
   0   2.0000     -20.624316      -561.2162
   1   2.0000     -20.620434      -561.1105
   2   2.0000     -20.570455      -559.7506
   3   2.0000     -20.569021      -559.7115
   4   2.0000     -11.423581      -310.8514
   5   2.0000     -11.415105      -310.6208
   6   2.0000     -11.341644      -308.6218
   7   2.0000     -11.277544      -306.8776
   8   2.0000     -11.268830      -306.6405
   9   2.0000     -11.266177      -306.5683
  10   2.0000     -11.256831      -306.3139
  11   2.0000     -11.254330      -306.2459
  12   2.0000     -11.245428      -306.0037
  13   2.0000      -1.498218       -40.7686
  14   2.0000      -1.487540       -40.4780
  15   2.0000      -1.391611       -37.8677
  16   2.0000      -1.382649       -37.6238
  17   2.0000      -1.191538       -32.4234
  18   2.0000      -1.073238       -29.2043
  19   2.0000      -1.064582       -28.9687
  20   2.0000      -1.022195       -27.8153
  21   2.0000      -0.925800       -25.1923
  22   2.0000      -0.877431       -23.8761
  23   2.0000      -0.837293       -22.7839
  24   2.0000      -0.804462       -21.8905
  25   2.0000      -0.734349       -19.9827
  26   2.0000      -0.718642       -19.5552
  27   2.0000      -0.699506       -19.0345
  28   2.0000      -0.693736       -18.8775
  29   2.0000      -0.674936       -18.3659
  30   2.0000      -0.668253       -18.1841
  31   2.0000      -0.647860       -17.6292
  32   2.0000      -0.636071       -17.3084
  33   2.0000      -0.625817       -17.0293
  34   2.0000      -0.591342       -16.0912
  35   2.0000      -0.585447       -15.9308
  36   2.0000      -0.576766       -15.6946
  37   2.0000      -0.561945       -15.2913
  38   2.0000      -0.538652       -14.6575
  39   2.0000      -0.522391       -14.2150
  40   2.0000      -0.519538       -14.1374
  41   2.0000      -0.487260       -13.2590
  42   2.0000      -0.471613       -12.8332
  43   2.0000      -0.464034       -12.6270
  44   2.0000      -0.454437       -12.3659
  45   2.0000      -0.365680        -9.9507
  46   2.0000      -0.353622        -9.6226
  47   0.0000       0.074344         2.0230
  48   0.0000       0.127751         3.4763
  49   0.0000       0.169790         4.6202
  50   0.0000       0.211670         5.7598
  51   0.0000       0.220069         5.9884

MULLIKEN ATOMIC CHARGES
-----------------------
   0 C :   -0.160485
   1 C :   -0.210772
   2 C :   -0.209288
   3 C :   -0.165361
   4 C :   -0.518852
   5 C :   -0.131286
   6 C :    0.432721
   7 O :   -0.555576
   8 O :   -0.541464
   9 O :   -0.752793
  10 C :    0.807189
  11 C :    0.781285
  12 O :   -0.787851
  13 H :    0.447818
  14 H :    0.271756
  15 H :    0.231558
  16 H :    0.218579
  17 H :    0.221349
  18 H :    0.215086
  19 H :    0.203145
  20 H :    0.203241
Sum of atomic charges:   -0.0000000

LOEWDIN ATOMIC CHARGES
----------------------
   0 C :   -0.053337
   1 C :   -0.140076
   2 C :   -0.135129
   3 C :   -0.072845
   4 C :   -0.335087
   5 C :   -0.122147
   6 C :    0.198487
   7 O :   -0.371421
   8 O :   -0.346344
   9 O :   -0.399218
  10 C :    0.383349
  11 C :    0.386951
  12 O :   -0.320673
  13 H :    0.329859
  14 H :    0.155647
  15 H :    0.142013
  16 H :    0.132231
  17 H :    0.133652
  18 H :    0.150557
  19 H :    0.138720
  20 H :    0.144811

  Mayer bond orders larger than 0.1
B(  0-C ,  2-C ) :   1.4608 B(  0-C ,  5-C ) :   1.3873 B(  0-C , 14-H ) :   0.9053
B(  1-C ,  3-C ) :   1.4370 B(  1-C ,  6-C ) :   1.4424 B(  1-C , 15-H ) :   0.9270
B(  2-C ,  3-C ) :   1.4276 B(  2-C , 16-H ) :   0.9352 B(  3-C , 17-H ) :   0.9320
B(  4-C , 11-C ) :   0.9063 B(  4-C , 18-H ) :   0.9326 B(  4-C , 19-H ) :   0.9451
B(  4-C , 20-H ) :   0.9356 B(  5-C ,  6-C ) :   1.3571 B(  5-C , 10-C ) :   0.9661
B(  6-C , 12-O ) :   0.7044 B(  7-O , 10-C ) :   1.8127 B(  8-O , 11-C ) :   1.8439
B(  9-O , 10-C ) :   0.8655 B(  9-O , 13-H ) :   0.7528 B( 11-C , 12-O ) :   0.7829

FINAL SINGLE POINT ENERGY      -644.675706036270

DIPOLE MOMENT
-------------
                                X             Y             Z
Electronic contribution:      2.27198      -2.94486       1.35055
Nuclear contribution   :     -2.52035       3.56056      -2.36980
                        -----------------------------------------
Total Dipole Moment    :     -0.24838       0.61570      -1.01925
                        -----------------------------------------
Magnitude (a.u.)       :      1.21641
Magnitude (Debye)      :      3.09186

                             ****ORCA TERMINATED NORMALLY****
TOTAL RUN TIME: 0 days 0 hours 24 minutes 57 seconds 294 msec
