 Q-Chem 4.3, Q-Chem, Inc., Pleasanton, CA (2015)
 Q-Chem 4.3.0 for Intel X86 EM64T Linux

User input:
--------------------------------------------------------------
$rem
jobtype opt
exchange b3lyp
basis 6-31g
$end

$molecule
0 1
C          2.05639       -0.16543        0.39727
C          0.68890        2.02854       -0.64816
C          2.74071        1.02327        0.12533
C          2.05734        2.11782       -0.40016
C         -3.59396        1.03209        0.04589
C          0.67738       -0.27507        0.15097
C          0.00274        0.84234       -0.35887
O          0.63293       -2.54526        0.93360
O         -1.76452        1.43252        1.56571
O         -1.24894       -1.68411        0.12975
C          0.05278       -1.58881        0.44958
C         -2.15199        1.12841        0.44513
O         -1.36167        0.82832       -0.65825
H         -1.47652       -2.60111        0.39232
H          2.60948       -1.01173        0.80284
H          0.15708        2.88266       -1.05823
H          3.80777        1.09126        0.32364
H          2.59044        3.04081       -0.61405
H         -3.81640        0.02049       -0.30287
H         -4.22480        1.24591        0.91440
H         -3.81296        1.76576       -0.73332
$end
--------------------------------------------------------------

   15    -648.4866030189      8.69E-09 Convergence criterion met
 Total energy in the final basis set = -648.4866030189
   14    -648.4948329487      4.34E-09 Convergence criterion met
 Total energy in the final basis set = -648.4948329487
   13    -648.4953802894      6.20E-09 Convergence criterion met
 Total energy in the final basis set = -648.4953802894
   12    -648.4954444771      8.43E-09 Convergence criterion met
 Total energy in the final basis set = -648.4954444771
   12    -648.4955579767      6.11E-09 Convergence criterion met
 Total energy in the final basis set = -648.4955579767
   12    -648.4955790374      8.94E-09 Convergence criterion met
 Total energy in the final basis set = -648.4955790374
   12    -648.4956597253      4.35E-09 Convergence criterion met
 Total energy in the final basis set = -648.4956597253
   12    -648.4956118247      3.45E-09 Convergence criterion met
 Total energy in the final basis set = -648.4956118247
   11    -648.4956883917      5.30E-09 Convergence criterion met
 Total energy in the final basis set = -648.4956883917
   11    -648.4956987820      4.56E-09 Convergence criterion met
 Total energy in the final basis set = -648.4956987820
   12    -648.4957191220      6.11E-09 Convergence criterion met
 Total energy in the final basis set = -648.4957191220
   11    -648.4957223105      3.74E-09 Convergence criterion met
 Total energy in the final basis set = -648.4957223105
   10    -648.4957233690      4.72E-09 Convergence criterion met
 Total energy in the final basis set = -648.4957233690

             Standard Nuclear Orientation (Angstroms)
    I     Atom           X                Y                Z
 ----------------------------------------------------------------
    1      C       2.3006893819    -0.3888583262     0.1783146698
    2      C       0.9262952282     1.9714111147    -0.3693836721
    3      C       2.9950913237     0.8169329762     0.1287849499
    4      C       2.3048326191     2.0030083657    -0.1513510053
    5      C      -3.4668134803     0.5313463083    -0.2380318242
    6      C       0.9104659396    -0.4475308228    -0.0486210866
    7      C       0.2344488551     0.7600398469    -0.3159504637
    8      O       0.9318301819    -2.8246281338     0.3130886861
    9      O      -1.8181996652     0.4440883821     1.5658488365
   10      O      -1.0285458524    -1.8681205878    -0.3257750519
   11      C       0.3084218475    -1.7971947696     0.0093098768
   12      C      -2.1055258093     0.5783031674     0.3826209232
   13      O      -1.1420192157     0.8220387437    -0.6123991362
   14      H      -1.3227742331    -2.8010147626    -0.2413263835
   15      H       2.8126550862    -1.3201252031     0.3895005039
   16      H       0.3674454238     2.8743459409    -0.5837430335
   17      H       4.0647827262     0.8337832549     0.3049665767
   18      H       2.8347658574     2.9486442845    -0.1949361058
   19      H      -3.5238687527    -0.3363583588    -0.9032257879
   20      H      -4.2237494957     0.4516075506     0.5423012168
   21      H      -3.6434103909     1.4242962305    -0.8447305183
 ----------------------------------------------------------------

    9    -648.4957237306      9.17E-09 Convergence criterion met
 Total energy in the final basis set = -648.4957237306
 Final energy is   -648.495723730599
 **  OPTIMIZATION CONVERGED  **

                    Orbital Energies (a.u.)
 --------------------------------------------------------------

 Alpha MOs
 -- Occupied --
-19.202 -19.199 -19.152 -19.151 -10.341 -10.337 -10.276 -10.226
-10.214 -10.210 -10.208 -10.205 -10.199  -1.123  -1.114  -1.040
 -1.030  -0.882  -0.792  -0.786  -0.751  -0.684  -0.647  -0.614
 -0.592  -0.532  -0.510  -0.499  -0.486  -0.473  -0.471  -0.460
 -0.453  -0.450  -0.418  -0.409  -0.404  -0.393  -0.384  -0.369
 -0.364  -0.325  -0.314  -0.289  -0.285  -0.273  -0.260

          Ground-State Mulliken Net Atomic Charges

     Atom                 Charge (a.u.)
  ----------------------------------------
      1 C                    -0.159720
      2 C                    -0.114291
      3 C                    -0.116500
      4 C                    -0.118715
      5 C                    -0.458277
      6 C                     0.116643
      7 C                     0.259030
      8 O                    -0.409124
      9 O                    -0.398249
     10 O                    -0.568226
     11 C                     0.436890
     12 C                     0.533431
     13 O                    -0.552318
     14 H                     0.391446
     15 H                     0.180109
     16 H                     0.148753
     17 H                     0.141436
     18 H                     0.143889
     19 H                     0.190547
     20 H                     0.174400
     21 H                     0.178845
  ----------------------------------------
  Sum of atomic charges =     0.000000

                    Cartesian Multipole Moments
 -----------------------------------------------------------------
    Charge (ESU x 10^10)
                 0.0000
    Dipole Moment (Debye)
         X      -0.5824      Y       1.7342      Z      -2.0224
       Tot       2.7270
    Quadrupole Moments (Debye-Ang)
        XX     -59.5437     XY       8.3691     YY     -70.2351
        XZ       3.5583     YZ       0.5975     ZZ     -81.3552

 Total job time:  658.54s(wall), 655.94s(cpu)
        *  Thank you very much for using Q-Chem.  Have a nice day.  *
