============================== echo of input deck ==============================
echo

start b3lyp_scf

geometry units ang
C          2.05639       -0.16543        0.39727
C          0.68890        2.02854       -0.64816
C          2.74071        1.02327        0.12533
C          2.05734        2.11782       -0.40016
C         -3.59396        1.03209        0.04589
C          0.67738       -0.27507        0.15097
C          0.00274        0.84234       -0.35887
O          0.63293       -2.54526        0.93360
O         -1.76452        1.43252        1.56571
O         -1.24894       -1.68411        0.12975
C          0.05278       -1.58881        0.44958
C         -2.15199        1.12841        0.44513
O         -1.36167        0.82832       -0.65825
H         -1.47652       -2.60111        0.39232
H          2.60948       -1.01173        0.80284
H          0.15708        2.88266       -1.05823
H          3.80777        1.09126        0.32364
H          2.59044        3.04081       -0.61405
H         -3.81640        0.02049       -0.30287
H         -4.22480        1.24591        0.91440
H         -3.81296        1.76576       -0.73332
end

basis cartesian print segment
 H library 6-31G
 C library 6-31G
 O library 6-31G
end

dft
  xc b3lyp
end

driver
  maxiter 40
end

task dft optimize
================================================================================

         Total DFT energy =     -648.486590959781
@ Step       Energy      Delta E   Gmax     Grms     Xrms     Xmax   Walltime
@ ---- ---------------- -------- -------- -------- -------- -------- --------
@    0    -648.48659096  0.0D+00  0.03735  0.00694  0.00000  0.00000     68.1
         Total DFT energy =     -648.495438301644
         Total DFT energy =   -648.495438301644
@    1    -648.49543830 -8.8D-03  0.00283  0.00051  0.15980  0.36081    132.8
         Total DFT energy =     -648.495661539768
         Total DFT energy =     -648.495671569626
@    2    -648.49567157 -2.3D-04  0.00112  0.00022  0.06192  0.36141    218.5
         Total DFT energy =     -648.495690985152
         Total DFT energy =   -648.495690985152
@    3    -648.49569099 -1.9D-05  0.00026  0.00006  0.01582  0.05797    266.3
         Total DFT energy =     -648.495694060078
         Total DFT energy =   -648.495694060078
@    4    -648.49569406 -3.1D-06  0.00017  0.00003  0.00838  0.03742    314.1
         Total DFT energy =     -648.495694136245

 Vector   57  Occ=0.000000D+00  E= 1.509931D-01

 Vector   58  Occ=0.000000D+00  E= 1.582137D-01

 Vector   59  Occ=0.000000D+00  E= 1.673517D-01

 Vector   60  Occ=0.000000D+00  E= 1.728955D-01

 Vector   61  Occ=0.000000D+00  E= 1.836694D-01

 Vector   62  Occ=0.000000D+00  E= 2.148296D-01

 Vector   63  Occ=0.000000D+00  E= 2.279743D-01

 Vector   64  Occ=0.000000D+00  E= 2.407312D-01

 Vector   65  Occ=0.000000D+00  E= 2.690655D-01

 Vector   66  Occ=0.000000D+00  E= 2.806538D-01

 Vector   67  Occ=0.000000D+00  E= 3.121323D-01

 Vector   68  Occ=0.000000D+00  E= 3.158299D-01

 Vector   69  Occ=0.000000D+00  E= 3.374674D-01

 Vector   70  Occ=0.000000D+00  E= 3.595972D-01

 Vector   71  Occ=0.000000D+00  E= 3.943242D-01

 Vector   72  Occ=0.000000D+00  E= 4.921080D-01

 Vector   73  Occ=0.000000D+00  E= 4.988787D-01

 Vector   74  Occ=0.000000D+00  E= 5.118691D-01

         Total DFT energy =   -648.495694136245
@    5    -648.49569414 -7.6D-08  0.00004  0.00001  0.00163  0.00492    353.6
         Total DFT energy =     -648.495694456095

                       DFT Final Molecular Orbital Analysis
                       ------------------------------------

 Vector   13  Occ=2.000000D+00  E=-1.019857D+01

 Vector   14  Occ=2.000000D+00  E=-1.123364D+00

 Vector   15  Occ=2.000000D+00  E=-1.114001D+00

 Vector   16  Occ=2.000000D+00  E=-1.040056D+00

 Vector   17  Occ=2.000000D+00  E=-1.030317D+00

 Vector   18  Occ=2.000000D+00  E=-8.821774D-01

 Vector   19  Occ=2.000000D+00  E=-7.920289D-01

 Vector   20  Occ=2.000000D+00  E=-7.861229D-01

 Vector   21  Occ=2.000000D+00  E=-7.513085D-01

 Vector   22  Occ=2.000000D+00  E=-6.837675D-01

 Vector   23  Occ=2.000000D+00  E=-6.471852D-01

 Vector   24  Occ=2.000000D+00  E=-6.138289D-01

 Vector   25  Occ=2.000000D+00  E=-5.915161D-01

 Vector   26  Occ=2.000000D+00  E=-5.320298D-01

 Vector   27  Occ=2.000000D+00  E=-5.100837D-01

 Vector   28  Occ=2.000000D+00  E=-4.988687D-01

 Vector   29  Occ=2.000000D+00  E=-4.863495D-01

 Vector   30  Occ=2.000000D+00  E=-4.731714D-01

 Vector   31  Occ=2.000000D+00  E=-4.711039D-01

 Vector   32  Occ=2.000000D+00  E=-4.601986D-01

 Vector   33  Occ=2.000000D+00  E=-4.535386D-01

 Vector   34  Occ=2.000000D+00  E=-4.502013D-01

 Vector   35  Occ=2.000000D+00  E=-4.182576D-01

 Vector   36  Occ=2.000000D+00  E=-4.089599D-01

 Vector   37  Occ=2.000000D+00  E=-4.039185D-01

 Vector   38  Occ=2.000000D+00  E=-3.933529D-01

 Vector   39  Occ=2.000000D+00  E=-3.834806D-01

 Vector   40  Occ=2.000000D+00  E=-3.691552D-01

 Vector   41  Occ=2.000000D+00  E=-3.638640D-01

 Vector   42  Occ=2.000000D+00  E=-3.252249D-01

 Vector   43  Occ=2.000000D+00  E=-3.140452D-01

 Vector   44  Occ=2.000000D+00  E=-2.885590D-01

 Vector   45  Occ=2.000000D+00  E=-2.846780D-01

 Vector   46  Occ=2.000000D+00  E=-2.732806D-01

 Vector   47  Occ=2.000000D+00  E=-2.605951D-01

 Vector   48  Occ=0.000000D+00  E=-6.440548D-02

 Vector   49  Occ=0.000000D+00  E=-2.007815D-02

 Vector   50  Occ=0.000000D+00  E=-4.960886D-03

 Vector   51  Occ=0.000000D+00  E= 3.922382D-02

 Vector   52  Occ=0.000000D+00  E= 5.897889D-02

 Vector   53  Occ=0.000000D+00  E= 8.468943D-02

 Vector   54  Occ=0.000000D+00  E= 1.114808D-01

 Vector   55  Occ=0.000000D+00  E= 1.284376D-01

 Vector   56  Occ=0.000000D+00  E= 1.409428D-01

 Vector   57  Occ=0.000000D+00  E= 1.509931D-01

 Vector   58  Occ=0.000000D+00  E= 1.582165D-01

 Vector   59  Occ=0.000000D+00  E= 1.673609D-01

 Vector   60  Occ=0.000000D+00  E= 1.729002D-01

 Vector   61  Occ=0.000000D+00  E= 1.836595D-01

 Vector   62  Occ=0.000000D+00  E= 2.147988D-01

 Vector   63  Occ=0.000000D+00  E= 2.279656D-01

 Vector   64  Occ=0.000000D+00  E= 2.407306D-01

 Vector   65  Occ=0.000000D+00  E= 2.690607D-01

 Vector   66  Occ=0.000000D+00  E= 2.806495D-01

 Vector   67  Occ=0.000000D+00  E= 3.121265D-01

 Vector   68  Occ=0.000000D+00  E= 3.158266D-01

 Vector   69  Occ=0.000000D+00  E= 3.374592D-01

 Vector   70  Occ=0.000000D+00  E= 3.595849D-01

 Vector   71  Occ=0.000000D+00  E= 3.943215D-01

 Vector   72  Occ=0.000000D+00  E= 4.921263D-01

 Vector   73  Occ=0.000000D+00  E= 4.988707D-01

 Vector   74  Occ=0.000000D+00  E= 5.118486D-01

     Multipole analysis of the density
     ---------------------------------

     L   x y z        total         alpha         beta         nuclear
     -   - - -        -----         -----         ----         -------
     0   0 0 0     -0.000000    -47.000000    -47.000000     94.000000

     1   1 0 0      0.671562     -0.409004     -0.409004      1.489569
     1   0 1 0      0.239694     -0.492780     -0.492780      1.225253
     1   0 0 1     -0.796288     -3.580079     -3.580079      6.363870

     2   2 0 0    -51.895896   -399.669410   -399.669410    747.442924
     2   1 1 0     -6.484302     24.624942     24.624942    -55.734186
     2   1 0 1      0.475460     18.988232     18.988232    -37.501004
     2   0 2 0    -44.694486   -659.594518   -659.594518   1274.494550
     2   0 1 1     -2.814472     -5.903487     -5.903487      8.992503

         Total DFT energy =   -648.495694456095
@    6    -648.49569446 -3.2D-07  0.00005  0.00001  0.00043  0.00156    390.0
@    6    -648.49569446 -3.2D-07  0.00005  0.00001  0.00043  0.00156    390.0

 Output coordinates in angstroms (scale by  1.889725989 to convert to a.u.)

  No.       Tag          Charge          X              Y              Z
 ---- ---------------- ---------- -------------- -------------- --------------
    1 C                    6.0000    -0.32689251    -2.30963915     0.20571761
    2 C                    6.0000     1.99099072    -0.87591323    -0.36894597
    3 C                    6.0000     0.89779015    -2.97041385     0.15885142
    4 C                    6.0000     2.06275045    -2.25031483    -0.13495391
    5 C                    6.0000     0.44268229     3.47780917    -0.27916555
    6 C                    6.0000    -0.42585734    -0.92433959    -0.03686804
    7 C                    6.0000     0.76100554    -0.21776537    -0.31799306
    8 O                    8.0000    -2.80188671    -1.01008731     0.32221223
    9 O                    8.0000     0.41090024     1.84723235     1.54257314
   10 O                    8.0000    -1.89797248     0.97537359    -0.31612566
   11 C                    6.0000    -1.79139173    -0.35934208     0.01897191
   12 C                    6.0000     0.52777808     2.12469654     0.35520237
   13 O                    8.0000     0.78301036     1.15608982    -0.63202438
   14 H                    1.0000    -2.83901933     1.24377290    -0.23527457
   15 H                    1.0000    -1.24241658    -2.84498314     0.42729282
   16 H                    1.0000     2.87651567    -0.29438573    -0.59476488
   17 H                    1.0000     0.94526165    -4.03704060     0.34723321
   18 H                    1.0000     3.02278719    -2.75365035    -0.17692113
   19 H                    1.0000    -0.45692093     3.52046380    -0.90199043
   20 H                    1.0000     0.39295662     4.24405714     0.49453836
   21 H                    1.0000     1.30353672     3.65260882    -0.93048124

 Total times  cpu:      385.0s     wall:      390.0s
