                         Program Version 3.0.1 -  RELEASE  -
|  1> ! rks b3lyp 6-31g opt
|  2>
|  3> * xyzfile 0 1 atoms.xyz **                         ****END OF INPUT****
 Total Charge           Charge          ....    0
 Multiplicity           Mult            ....    1
 Number of Electrons    NEL             ....   94
FINAL SINGLE POINT ENERGY      -648.137299191876
FINAL SINGLE POINT ENERGY      -648.145088257780
FINAL SINGLE POINT ENERGY      -648.145983418678
FINAL SINGLE POINT ENERGY      -648.145963326280
FINAL SINGLE POINT ENERGY      -648.146295929764
FINAL SINGLE POINT ENERGY      -648.146341163468
FINAL SINGLE POINT ENERGY      -648.146377216802
FINAL SINGLE POINT ENERGY      -648.146393269386
FINAL SINGLE POINT ENERGY      -648.146417402518
FINAL SINGLE POINT ENERGY      -648.146434703312
FINAL SINGLE POINT ENERGY      -648.146445034079
FINAL SINGLE POINT ENERGY      -648.146449526714
                    ***********************HURRAY********************

CARTESIAN COORDINATES (ANGSTROEM)
---------------------------------
  C      2.090083   -0.161372    0.336454
  C      0.779711    2.111623   -0.600785
  C      2.826039    0.980259    0.028716
  C      2.167597    2.121649   -0.447877
  C     -3.654095    0.936443   -0.014947
  C      0.689133   -0.199077    0.179891
  C      0.046211    0.965545   -0.287138
  O      0.637922   -2.463997    0.986362
  O     -1.921967    1.099267    1.703714
  O     -1.313675   -1.555678    0.253741
  C      0.039863   -1.484491    0.517511
  C     -2.262156    1.027988    0.528779
  O     -1.340185    1.035105   -0.533843
  H     -1.638365   -2.442263    0.523753
  H      2.576722   -1.057557    0.703331
  H      0.244938    2.981633   -0.962949
  H      3.903050    0.981792    0.157438
  H      2.729748    3.016509   -0.694548
  H     -3.783810   -0.038286   -0.496901
  H     -4.373389    1.047843    0.796824
  H     -3.821194    1.705744   -0.775007

 Multiplicity           Mult            ....    1
 Number of Electrons    NEL             ....   94
 Basis Dimension        Dim             ....  133

ORBITAL ENERGIES
----------------

  NO   OCC          E(Eh)            E(eV)
   0   2.0000     -19.198017      -522.4046
   1   2.0000     -19.195552      -522.3375
   2   2.0000     -19.148179      -521.0484
   3   2.0000     -19.147191      -521.0215
   4   2.0000     -10.337557      -281.2992
   5   2.0000     -10.333712      -281.1946
   6   2.0000     -10.272461      -279.5279
   7   2.0000     -10.222161      -278.1591
   8   2.0000     -10.210092      -277.8307
   9   2.0000     -10.206079      -277.7215
  10   2.0000     -10.204124      -277.6683
  11   2.0000     -10.201880      -277.6073
  12   2.0000     -10.195039      -277.4211
  13   2.0000      -1.119588       -30.4655
  14   2.0000      -1.110287       -30.2124
  15   2.0000      -1.036502       -28.2047
  16   2.0000      -1.026668       -27.9370
  17   2.0000      -0.878558       -23.9068
  18   2.0000      -0.788445       -21.4547
  19   2.0000      -0.782574       -21.2949
  20   2.0000      -0.747763       -20.3477
  21   2.0000      -0.680176       -18.5085
  22   2.0000      -0.643526       -17.5112
  23   2.0000      -0.610339       -16.6082
  24   2.0000      -0.587853       -15.9963
  25   2.0000      -0.528438       -14.3795
  26   2.0000      -0.506521       -13.7831
  27   2.0000      -0.495426       -13.4812
  28   2.0000      -0.482825       -13.1383
  29   2.0000      -0.469566       -12.7775
  30   2.0000      -0.467512       -12.7217
  31   2.0000      -0.456756       -12.4290
  32   2.0000      -0.449892       -12.2422
  33   2.0000      -0.446705       -12.1555
  34   2.0000      -0.414846       -11.2885
  35   2.0000      -0.405446       -11.0328
  36   2.0000      -0.400432       -10.8963
  37   2.0000      -0.389830       -10.6078
  38   2.0000      -0.380134       -10.3440
  39   2.0000      -0.365676        -9.9506
  40   2.0000      -0.360341        -9.8054
  41   2.0000      -0.321737        -8.7549
  42   2.0000      -0.310823        -8.4579
  43   2.0000      -0.285104        -7.7581
  44   2.0000      -0.281322        -7.6552
  45   2.0000      -0.269751        -7.3403
  46   2.0000      -0.257065        -6.9951
  47   0.0000      -0.061045        -1.6611
  48   0.0000      -0.016846        -0.4584
  49   0.0000      -0.001610        -0.0438
  50   0.0000       0.042445         1.1550
  51   0.0000       0.062292         1.6951

MULLIKEN ATOMIC CHARGES
-----------------------
   0 C :   -0.160305
   1 C :   -0.114682
   2 C :   -0.116121
   3 C :   -0.118111
   4 C :   -0.456748
   5 C :    0.117991
   6 C :    0.258997
   7 O :   -0.408147
   8 O :   -0.397956
   9 O :   -0.568001
  10 C :    0.435643
  11 C :    0.533487
  12 O :   -0.552157
  13 H :    0.390976
  14 H :    0.178620
  15 H :    0.147454
  16 H :    0.144189
  17 H :    0.142663
  18 H :    0.189697
  19 H :    0.174266
  20 H :    0.178245
Sum of atomic charges:   -0.0000000

LOEWDIN ATOMIC CHARGES
----------------------
   0 C :   -0.070286
   1 C :   -0.123501
   2 C :   -0.116345
   3 C :   -0.084696
   4 C :   -0.342287
   5 C :   -0.085527
   6 C :    0.145989
   7 O :   -0.292842
   8 O :   -0.264311
   9 O :   -0.332510
  10 C :    0.258205
  11 C :    0.277725
  12 O :   -0.235480
  13 H :    0.307731
  14 H :    0.144309
  15 H :    0.134296
  16 H :    0.126198
  17 H :    0.125931
  18 H :    0.148661
  19 H :    0.136358
  20 H :    0.142383

  Mayer bond orders larger than 0.1
B(  0-C ,  2-C ) :   1.4414 B(  0-C ,  5-C ) :   1.3675 B(  0-C , 14-H ) :   0.9101
B(  1-C ,  3-C ) :   1.4307 B(  1-C ,  6-C ) :   1.4190 B(  1-C , 15-H ) :   0.9216
B(  2-C ,  3-C ) :   1.4167 B(  2-C , 16-H ) :   0.9307 B(  3-C , 17-H ) :   0.9284
B(  4-C , 11-C ) :   0.9467 B(  4-C , 18-H ) :   0.9270 B(  4-C , 19-H ) :   0.9418
B(  4-C , 20-H ) :   0.9297 B(  5-C ,  6-C ) :   1.3116 B(  5-C , 10-C ) :   0.9402
B(  6-C , 12-O ) :   0.8251 B(  7-O , 10-C ) :   1.8612 B(  8-O , 11-C ) :   1.9224
B(  9-O , 10-C ) :   0.9671 B(  9-O , 13-H ) :   0.7736 B( 11-C , 12-O ) :   0.8639

FINAL SINGLE POINT ENERGY      -648.146451495738

DIPOLE MOMENT
-------------
                                X             Y             Z
Electronic contribution:      2.27405      -3.07779       1.47575
Nuclear contribution   :     -2.51463       3.61228      -2.37480
                        -----------------------------------------
Total Dipole Moment    :     -0.24058       0.53449      -0.89905
                        -----------------------------------------
Magnitude (a.u.)       :      1.07324
Magnitude (Debye)      :      2.72796

                             ****ORCA TERMINATED NORMALLY****
TOTAL RUN TIME: 0 days 0 hours 14 minutes 14 seconds 333 msec
