                         Program Version 3.0.1 -  RELEASE  -
|  1> ! rks b3lyp/g 6-31g opt
|  2>
|  3> * xyzfile 0 1 atoms.xyz **                         ****END OF INPUT****
 Total Charge           Charge          ....    0
 Multiplicity           Mult            ....    1
 Number of Electrons    NEL             ....   94
FINAL SINGLE POINT ENERGY      -648.486522811414
FINAL SINGLE POINT ENERGY      -648.494250831404
FINAL SINGLE POINT ENERGY      -648.495147358029
FINAL SINGLE POINT ENERGY      -648.495128529340
FINAL SINGLE POINT ENERGY      -648.495462416072
FINAL SINGLE POINT ENERGY      -648.495508394381
FINAL SINGLE POINT ENERGY      -648.495545509723
FINAL SINGLE POINT ENERGY      -648.495561562704
FINAL SINGLE POINT ENERGY      -648.495586099635
FINAL SINGLE POINT ENERGY      -648.495603796798
FINAL SINGLE POINT ENERGY      -648.495614075707
FINAL SINGLE POINT ENERGY      -648.495618662426
                    ***********************HURRAY********************

CARTESIAN COORDINATES (ANGSTROEM)
---------------------------------
  C      2.089345   -0.161063    0.336653
  C      0.779739    2.111423   -0.601074
  C      2.825373    0.980090    0.028731
  C      2.167307    2.121204   -0.448136
  C     -3.653103    0.935771   -0.014779
  C      0.688736   -0.198509    0.180015
  C      0.046179    0.965838   -0.287195
  O      0.637033   -2.462623    0.986959
  O     -1.921263    1.097581    1.703420
  O     -1.313731   -1.554517    0.253405
  C      0.039348   -1.483358    0.517680
  C     -2.261519    1.027196    0.528655
  O     -1.339853    1.035585   -0.533689
  H     -1.638693   -2.440697    0.523482
  H      2.575571   -1.057046    0.703709
  H      0.245285    2.981196   -0.963366
  H      3.902068    0.981476    0.157508
  H      2.729484    3.015626   -0.694980
  H     -3.782288   -0.037921   -0.498245
  H     -4.372109    1.045389    0.797060
  H     -3.820728    1.706041   -0.773296

 Multiplicity           Mult            ....    1
 Number of Electrons    NEL             ....   94
 Basis Dimension        Dim             ....  133

ORBITAL ENERGIES
----------------

  NO   OCC          E(Eh)            E(eV)
   0   2.0000     -19.201655      -522.5036
   1   2.0000     -19.199202      -522.4368
   2   2.0000     -19.151738      -521.1453
   3   2.0000     -19.150761      -521.1187
   4   2.0000     -10.341282      -281.4006
   5   2.0000     -10.337438      -281.2960
   6   2.0000     -10.276133      -279.6278
   7   2.0000     -10.225767      -278.2573
   8   2.0000     -10.213702      -277.9290
   9   2.0000     -10.209685      -277.8197
  10   2.0000     -10.207727      -277.7664
  11   2.0000     -10.205481      -277.7053
  12   2.0000     -10.198590      -277.5177
  13   2.0000      -1.123332       -30.5674
  14   2.0000      -1.114019       -30.3140
  15   2.0000      -1.040150       -28.3039
  16   2.0000      -1.030314       -28.0363
  17   2.0000      -0.882207       -24.0061
  18   2.0000      -0.792074       -21.5534
  19   2.0000      -0.786210       -21.3939
  20   2.0000      -0.751365       -20.4457
  21   2.0000      -0.683814       -18.6075
  22   2.0000      -0.647156       -17.6100
  23   2.0000      -0.613952       -16.7065
  24   2.0000      -0.591487       -16.0952
  25   2.0000      -0.532021       -14.4770
  26   2.0000      -0.510119       -13.8810
  27   2.0000      -0.499007       -13.5787
  28   2.0000      -0.486424       -13.2363
  29   2.0000      -0.473135       -12.8746
  30   2.0000      -0.471063       -12.8183
  31   2.0000      -0.460333       -12.5263
  32   2.0000      -0.453468       -12.3395
  33   2.0000      -0.450252       -12.2520
  34   2.0000      -0.418377       -11.3846
  35   2.0000      -0.408981       -11.1290
  36   2.0000      -0.403972       -10.9926
  37   2.0000      -0.393371       -10.7042
  38   2.0000      -0.383671       -10.4402
  39   2.0000      -0.369178       -10.0458
  40   2.0000      -0.363865        -9.9013
  41   2.0000      -0.325290        -8.8516
  42   2.0000      -0.314364        -8.5543
  43   2.0000      -0.288607        -7.8534
  44   2.0000      -0.284810        -7.7501
  45   2.0000      -0.273223        -7.4348
  46   2.0000      -0.260533        -7.0895
  47   0.0000      -0.064445        -1.7536
  48   0.0000      -0.020215        -0.5501
  49   0.0000      -0.004948        -0.1346
  50   0.0000       0.039109         1.0642
  51   0.0000       0.059211         1.6112

MULLIKEN ATOMIC CHARGES
-----------------------
   0 C :   -0.160631
   1 C :   -0.115127
   2 C :   -0.116602
   3 C :   -0.118526
   4 C :   -0.457738
   5 C :    0.118155
   6 C :    0.259137
   7 O :   -0.408441
   8 O :   -0.398267
   9 O :   -0.568445
  10 C :    0.435941
  11 C :    0.533844
  12 O :   -0.552507
  13 H :    0.391254
  14 H :    0.179002
  15 H :    0.147891
  16 H :    0.144718
  17 H :    0.143084
  18 H :    0.190009
  19 H :    0.174646
  20 H :    0.178604
Sum of atomic charges:   -0.0000000

LOEWDIN ATOMIC CHARGES
----------------------
   0 C :   -0.070317
   1 C :   -0.123597
   2 C :   -0.116486
   3 C :   -0.084788
   4 C :   -0.342595
   5 C :   -0.085597
   6 C :    0.145940
   7 O :   -0.292970
   8 O :   -0.264467
   9 O :   -0.332529
  10 C :    0.258211
  11 C :    0.277683
  12 O :   -0.235402
  13 H :    0.307864
  14 H :    0.144424
  15 H :    0.134428
  16 H :    0.126345
  17 H :    0.126056
  18 H :    0.148778
  19 H :    0.136498
  20 H :    0.142521

  Mayer bond orders larger than 0.1
B(  0-C ,  2-C ) :   1.4415 B(  0-C ,  5-C ) :   1.3677 B(  0-C , 14-H ) :   0.9100
B(  1-C ,  3-C ) :   1.4308 B(  1-C ,  6-C ) :   1.4192 B(  1-C , 15-H ) :   0.9215
B(  2-C ,  3-C ) :   1.4168 B(  2-C , 16-H ) :   0.9306 B(  3-C , 17-H ) :   0.9284
B(  4-C , 11-C ) :   0.9468 B(  4-C , 18-H ) :   0.9270 B(  4-C , 19-H ) :   0.9417
B(  4-C , 20-H ) :   0.9296 B(  5-C ,  6-C ) :   1.3118 B(  5-C , 10-C ) :   0.9402
B(  6-C , 12-O ) :   0.8249 B(  7-O , 10-C ) :   1.8610 B(  8-O , 11-C ) :   1.9221
B(  9-O , 10-C ) :   0.9669 B(  9-O , 13-H ) :   0.7735 B( 11-C , 12-O ) :   0.8639

FINAL SINGLE POINT ENERGY      -648.495620645744

DIPOLE MOMENT
-------------
                                X             Y             Z
Electronic contribution:      2.27276      -3.07506       1.47490
Nuclear contribution   :     -2.51340       3.61019      -2.37492
                        -----------------------------------------
Total Dipole Moment    :     -0.24064       0.53512      -0.90001
                        -----------------------------------------
Magnitude (a.u.)       :      1.07438
Magnitude (Debye)      :      2.73085

                             ****ORCA TERMINATED NORMALLY****
TOTAL RUN TIME: 0 days 0 hours 14 minutes 30 seconds 667 msec
