User input:
--------------------------------------------------------------
$rem
jobtype opt
exchange hf
basis 6-31g
$end

$molecule
0 1
C          2.05639       -0.16543        0.39727
C          0.68890        2.02854       -0.64816
C          2.74071        1.02327        0.12533
C          2.05734        2.11782       -0.40016
C         -3.59396        1.03209        0.04589
C          0.67738       -0.27507        0.15097
C          0.00274        0.84234       -0.35887
O          0.63293       -2.54526        0.93360
O         -1.76452        1.43252        1.56571
O         -1.24894       -1.68411        0.12975
C          0.05278       -1.58881        0.44958
C         -2.15199        1.12841        0.44513
O         -1.36167        0.82832       -0.65825
H         -1.47652       -2.60111        0.39232
H          2.60948       -1.01173        0.80284
H          0.15708        2.88266       -1.05823
H          3.80777        1.09126        0.32364
H          2.59044        3.04081       -0.61405
H         -3.81640        0.02049       -0.30287
H         -4.22480        1.24591        0.91440
H         -3.81296        1.76576       -0.73332
$end
--------------------------------------------------------------

   18    -644.6612036208      3.06E-09 Convergence criterion met
 Total energy in the final basis set = -644.6612036208
   15    -644.6744737324      8.22E-09 Convergence criterion met
 Total energy in the final basis set = -644.6744737324
   15    -644.6750271691      6.58E-09 Convergence criterion met
 Total energy in the final basis set = -644.6750271691
   14    -644.6752857090      8.82E-09 Convergence criterion met
 Total energy in the final basis set = -644.6752857090
   15    -644.6753329703      2.57E-09 Convergence criterion met
 Total energy in the final basis set = -644.6753329703
   13    -644.6753402213      8.89E-09 Convergence criterion met
 Total energy in the final basis set = -644.6753402213
   14    -644.6756357067      3.61E-09 Convergence criterion met
 Total energy in the final basis set = -644.6756357067
   13    -644.6754331605      9.37E-09 Convergence criterion met
 Total energy in the final basis set = -644.6754331605
   14    -644.6756887057      4.62E-09 Convergence criterion met
 Total energy in the final basis set = -644.6756887057
   12    -644.6756940318      7.52E-09 Convergence criterion met
 Total energy in the final basis set = -644.6756940318
   11    -644.6756988379      7.45E-09 Convergence criterion met
 Total energy in the final basis set = -644.6756988379
   11    -644.6757014058      7.12E-09 Convergence criterion met
 Total energy in the final basis set = -644.6757014058
   12    -644.6757046856      9.50E-09 Convergence criterion met
 Total energy in the final basis set = -644.6757046856

       Standard Nuclear Orientation (Angstroms)
    I     Atom         X            Y            Z
 ----------------------------------------------------
    1      C       2.295253    -0.388847     0.156227
    2      C       0.910871     1.948458    -0.343440
    3      C       2.976030     0.812437     0.117010
    4      C       2.278963     1.985418    -0.136859
    5      C      -3.438920     0.525870    -0.259953
    6      C       0.916478    -0.449082    -0.054568
    7      C       0.236238     0.742463    -0.298884
    8      O       0.942031    -2.808186     0.229716
    9      O      -1.838726     0.514917     1.545639
   10      O      -1.015986    -1.859581    -0.234914
   11      C       0.311628    -1.794203     0.000100
   12      C      -2.093176     0.591736     0.370196
   13      O      -1.124169     0.788677    -0.577685
   14      H      -1.351252    -2.751066    -0.168766
   15      H       2.814741    -1.305009     0.348381
   16      H       0.352443     2.839732    -0.543045
   17      H       4.034732     0.834328     0.281124
   18      H       2.795506     2.924511    -0.172108
   19      H      -3.472256    -0.319070    -0.934103
   20      H      -4.193609     0.422638     0.502663
   21      H      -3.620002     1.419875    -0.841469
 ----------------------------------------------------

   12    -644.6757061615      9.47E-09 Convergence criterion met
 Total energy in the final basis set = -644.6757061615
 Final energy is   -644.675706161474
 **  OPTIMIZATION CONVERGED  **

                    Orbital Energies (a.u.)
 --------------------------------------------------------------

 Alpha MOs
 -- Occupied --
-20.624 -20.620 -20.570 -20.569 -11.424 -11.415 -11.342 -11.278
-11.269 -11.266 -11.257 -11.254 -11.245  -1.498  -1.488  -1.392
 -1.383  -1.192  -1.073  -1.065  -1.022  -0.926  -0.877  -0.837
 -0.804  -0.734  -0.719  -0.700  -0.694  -0.675  -0.668  -0.648
 -0.636  -0.626  -0.591  -0.585  -0.577  -0.562  -0.539  -0.522
 -0.520  -0.487  -0.472  -0.464  -0.454  -0.366  -0.354

          Ground-State Mulliken Net Atomic Charges

     Atom                 Charge (a.u.)
  ----------------------------------------
      1 C                    -0.160512
      2 C                    -0.210788
      3 C                    -0.209272
      4 C                    -0.165375
      5 C                    -0.518854
      6 C                    -0.131222
      7 C                     0.432765
      8 O                    -0.555592
      9 O                    -0.541489
     10 O                    -0.752810
     11 C                     0.807185
     12 C                     0.781325
     13 O                    -0.787885
     14 H                     0.447830
     15 H                     0.271727
     16 H                     0.231562
     17 H                     0.218588
     18 H                     0.221352
     19 H                     0.215099
     20 H                     0.203139
     21 H                     0.203230
  ----------------------------------------
  Sum of atomic charges =    -0.000000

                    Cartesian Multipole Moments
 -----------------------------------------------------------------
    Charge (ESU x 10^10)
                -0.0000
    Dipole Moment (Debye)
         X      -0.5965      Y       2.0070      Z      -2.2758
       Tot       3.0924
    Quadrupole Moments (Debye-Ang)
        XX     -59.6297     XY       9.4976     YY     -72.1095
        XZ       4.5270     YZ      -0.1501     ZZ     -83.9781
    Octapole Moments (Debye-Ang^2)
       XXX     -21.7473    XXY       5.2930    XYY     -27.2692
       YYY      17.1434    XXZ      -7.6902    XYZ       2.3333
       YYZ     -10.6694    XZZ       1.1222    YZZ     -12.4033
       ZZZ     -15.5531
    Hexadecapole Moments (Debye-Ang^3)
      XXXX   -1508.2750   XXXY     -11.8944   XXYY    -414.0099
      XYYY      92.4857   YYYY    -983.3870   XXXZ      51.0512
      XXYZ       1.9845   XYYZ       2.5776   YYYZ      28.6897
      XXZZ    -356.4042   XYZZ      -9.7646   YYZZ    -203.3552

 Total job time:  158.61s(wall), 156.28s(cpu)
        *  Thank you very much for using Q-Chem.  Have a nice day.  *
