                         Program Version 3.0.3 - RELEASE   -
|  1> ! rhf 6-31g opt
|  2>
|  3> * xyzfile 0 1 atoms.xyz **                         ****END OF INPUT****
 Total Charge           Charge          ....    0
 Multiplicity           Mult            ....    1
 Number of Electrons    NEL             ....   94
FINAL SINGLE POINT ENERGY      -644.661203607692
FINAL SINGLE POINT ENERGY      -644.673781961243
FINAL SINGLE POINT ENERGY      -644.675036923327
FINAL SINGLE POINT ENERGY      -644.674926700820
FINAL SINGLE POINT ENERGY      -644.675512264131
FINAL SINGLE POINT ENERGY      -644.675512894242
FINAL SINGLE POINT ENERGY      -644.675669329087
FINAL SINGLE POINT ENERGY      -644.675638306221
FINAL SINGLE POINT ENERGY      -644.675691793890
FINAL SINGLE POINT ENERGY      -644.675694745506
FINAL SINGLE POINT ENERGY      -644.675703623638
FINAL SINGLE POINT ENERGY      -644.675705087641
                    ***********************HURRAY********************

CARTESIAN COORDINATES (ANGSTROEM)
---------------------------------
  C      2.082302   -0.166469    0.312463
  C      0.765795    2.096371   -0.568098
  C      2.805842    0.972312    0.016728
  C      2.142645    2.107524   -0.428207
  C     -3.626103    0.921241   -0.037650
  C      0.693542   -0.200716    0.173276
  C      0.048361    0.953545   -0.266396
  O      0.642709   -2.461646    0.902637
  O     -1.941212    1.175804    1.670355
  O     -1.297766   -1.527833    0.343342
  C      0.041118   -1.481327    0.508532
  C     -2.249657    1.041319    0.513176
  O     -1.321239    1.010290   -0.493481
  H     -1.663485   -2.373931    0.592036
  H      2.574777   -1.053211    0.654992
  H      0.232474    2.958746   -0.911509
  H      3.871355    0.975281    0.130424
  H      2.692541    2.997637   -0.663279
  H     -3.724299   -0.032047   -0.538713
  H     -4.345938    0.997121    0.761019
  H     -3.801582    1.698668   -0.769127

 Multiplicity           Mult            ....    1
 Number of Electrons    NEL             ....   94
 Basis Dimension        Dim             ....  133

ORBITAL ENERGIES
----------------

  NO   OCC          E(Eh)            E(eV)
   0   2.0000     -20.624302      -561.2158
   1   2.0000     -20.620438      -561.1107
   2   2.0000     -20.570457      -559.7506
   3   2.0000     -20.569038      -559.7120
   4   2.0000     -11.423574      -310.8513
   5   2.0000     -11.415109      -310.6209
   6   2.0000     -11.341640      -308.6217
   7   2.0000     -11.277539      -306.8774
   8   2.0000     -11.268828      -306.6404
   9   2.0000     -11.266173      -306.5682
  10   2.0000     -11.256826      -306.3138
  11   2.0000     -11.254329      -306.2459
  12   2.0000     -11.245431      -306.0037
  13   2.0000      -1.498216       -40.7685
  14   2.0000      -1.487539       -40.4780
  15   2.0000      -1.391621       -37.8679
  16   2.0000      -1.382648       -37.6238
  17   2.0000      -1.191536       -32.4233
  18   2.0000      -1.073236       -29.2042
  19   2.0000      -1.064581       -28.9687
  20   2.0000      -1.022196       -27.8154
  21   2.0000      -0.925801       -25.1923
  22   2.0000      -0.877421       -23.8758
  23   2.0000      -0.837298       -22.7840
  24   2.0000      -0.804459       -21.8904
  25   2.0000      -0.734340       -19.9824
  26   2.0000      -0.718641       -19.5552
  27   2.0000      -0.699511       -19.0347
  28   2.0000      -0.693743       -18.8777
  29   2.0000      -0.674925       -18.3656
  30   2.0000      -0.668261       -18.1843
  31   2.0000      -0.647854       -17.6290
  32   2.0000      -0.636066       -17.3082
  33   2.0000      -0.625816       -17.0293
  34   2.0000      -0.591340       -16.0912
  35   2.0000      -0.585452       -15.9310
  36   2.0000      -0.576769       -15.6947
  37   2.0000      -0.561945       -15.2913
  38   2.0000      -0.538661       -14.6577
  39   2.0000      -0.522387       -14.2149
  40   2.0000      -0.519534       -14.1372
  41   2.0000      -0.487265       -13.2591
  42   2.0000      -0.471619       -12.8334
  43   2.0000      -0.464037       -12.6271
  44   2.0000      -0.454441       -12.3660
  45   2.0000      -0.365676        -9.9506
  46   2.0000      -0.353613        -9.6223
  47   0.0000       0.074351         2.0232
  48   0.0000       0.127748         3.4762
  49   0.0000       0.169793         4.6203
  50   0.0000       0.211672         5.7599
  51   0.0000       0.220076         5.9886

MULLIKEN ATOMIC CHARGES
-----------------------
   0 C :   -0.160489
   1 C :   -0.210801
   2 C :   -0.209291
   3 C :   -0.165351
   4 C :   -0.518856
   5 C :   -0.131217
   6 C :    0.432682
   7 O :   -0.555566
   8 O :   -0.541483
   9 O :   -0.752799
  10 C :    0.807186
  11 C :    0.781307
  12 O :   -0.787854
  13 H :    0.447816
  14 H :    0.271753
  15 H :    0.231558
  16 H :    0.218579
  17 H :    0.221347
  18 H :    0.215089
  19 H :    0.203146
  20 H :    0.203244
Sum of atomic charges:   -0.0000000

LOEWDIN ATOMIC CHARGES
----------------------
   0 C :   -0.053342
   1 C :   -0.140083
   2 C :   -0.135130
   3 C :   -0.072851
   4 C :   -0.335088
   5 C :   -0.122144
   6 C :    0.198484
   7 O :   -0.371405
   8 O :   -0.346349
   9 O :   -0.399220
  10 C :    0.383350
  11 C :    0.386951
  12 O :   -0.320665
  13 H :    0.329859
  14 H :    0.155646
  15 H :    0.142013
  16 H :    0.132230
  17 H :    0.133651
  18 H :    0.150562
  19 H :    0.138720
  20 H :    0.144810

  Mayer bond orders larger than 0.1
B(  0-C ,  2-C ) :   1.4609 B(  0-C ,  5-C ) :   1.3872 B(  0-C , 14-H ) :   0.9053
B(  1-C ,  3-C ) :   1.4370 B(  1-C ,  6-C ) :   1.4424 B(  1-C , 15-H ) :   0.9270
B(  2-C ,  3-C ) :   1.4275 B(  2-C , 16-H ) :   0.9352 B(  3-C , 17-H ) :   0.9320
B(  4-C , 11-C ) :   0.9063 B(  4-C , 18-H ) :   0.9326 B(  4-C , 19-H ) :   0.9451
B(  4-C , 20-H ) :   0.9356 B(  5-C ,  6-C ) :   1.3571 B(  5-C , 10-C ) :   0.9661
B(  6-C , 12-O ) :   0.7044 B(  7-O , 10-C ) :   1.8128 B(  8-O , 11-C ) :   1.8439
B(  9-O , 10-C ) :   0.8655 B(  9-O , 13-H ) :   0.7528 B( 11-C , 12-O ) :   0.7829

FINAL SINGLE POINT ENERGY      -644.675706017977

DIPOLE MOMENT
-------------
                                X             Y             Z
Electronic contribution:      2.27183      -2.94559       1.35124
Nuclear contribution   :     -2.52035       3.56176      -2.37130
                        -----------------------------------------
Total Dipole Moment    :     -0.24852       0.61617      -1.02006
                        -----------------------------------------
Magnitude (a.u.)       :      1.21735
Magnitude (Debye)      :      3.09426

                             ****ORCA TERMINATED NORMALLY****
TOTAL RUN TIME: 0 days 0 hours 24 minutes 46 seconds 737 msec
